10x2x2 Silicon

512 atoms

1 atom types

  0.00000000  86.89600000 xlo xhi
  0.00000000  10.86200000 ylo yhi
  0.00000000  10.86200000 zlo zhi

Masses

1 28.0855

Atoms

1 1   0.00000000   0.00000000   0.00000000
2 1   0.00000000   2.71550000   2.71550000
3 1   2.71550000   0.00000000   2.71550000
4 1   2.71550000   2.71550000   0.00000000
5 1   1.35775000   1.35775000   1.35775000
6 1   4.07325000   4.07325000   1.35775000
7 1   1.35775000   4.07325000   4.07325000
8 1   4.07325000   1.35775000   4.07325000
9 1   0.00000000   0.00000000   5.43100000
10 1   0.00000000   2.71550000   8.14650000
11 1   2.71550000   0.00000000   8.14650000
12 1   2.71550000   2.71550000   5.43100000
13 1   1.35775000   1.35775000   6.78875000
14 1   4.07325000   4.07325000   6.78875000
15 1   1.35775000   4.07325000   9.50425000
16 1   4.07325000   1.35775000   9.50425000
17 1   0.00000000   5.43100000   0.00000000
18 1   0.00000000   8.14650000   2.71550000
19 1   2.71550000   5.43100000   2.71550000
20 1   2.71550000   8.14650000   0.00000000
21 1   1.35775000   6.78875000   1.35775000
22 1   4.07325000   9.50425000   1.35775000
23 1   1.35775000   9.50425000   4.07325000
24 1   4.07325000   6.78875000   4.07325000
25 1   0.00000000   5.43100000   5.43100000
26 1   0.00000000   8.14650000   8.14650000
27 1   2.71550000   5.43100000   8.14650000
28 1   2.71550000   8.14650000   5.43100000
29 1   1.35775000   6.78875000   6.78875000
30 1   4.07325000   9.50425000   6.78875000
31 1   1.35775000   9.50425000   9.50425000
32 1   4.07325000   6.78875000   9.50425000
33 1   5.43100000   0.00000000   0.00000000
34 1   5.43100000   2.71550000   2.71550000
35 1   8.14650000   0.00000000   2.71550000
36 1   8.14650000   2.71550000   0.00000000
37 1   6.78875000   1.35775000   1.35775000
38 1   9.50425000   4.07325000   1.35775000
39 1   6.78875000   4.07325000   4.07325000
40 1   9.50425000   1.35775000   4.07325000
41 1   5.43100000   0.00000000   5.43100000
42 1   5.43100000   2.71550000   8.14650000
43 1   8.14650000   0.00000000   8.14650000
44 1   8.14650000   2.71550000   5.43100000
45 1   6.78875000   1.35775000   6.78875000
46 1   9.50425000   4.07325000   6.78875000
47 1   6.78875000   4.07325000   9.50425000
48 1   9.50425000   1.35775000   9.50425000
49 1   5.43100000   5.43100000   0.00000000
50 1   5.43100000   8.14650000   2.71550000
51 1   8.14650000   5.43100000   2.71550000
52 1   8.14650000   8.14650000   0.00000000
53 1   6.78875000   6.78875000   1.35775000
54 1   9.50425000   9.50425000   1.35775000
55 1   6.78875000   9.50425000   4.07325000
56 1   9.50425000   6.78875000   4.07325000
57 1   5.43100000   5.43100000   5.43100000
58 1   5.43100000   8.14650000   8.14650000
59 1   8.14650000   5.43100000   8.14650000
60 1   8.14650000   8.14650000   5.43100000
61 1   6.78875000   6.78875000   6.78875000
62 1   9.50425000   9.50425000   6.78875000
63 1   6.78875000   9.50425000   9.50425000
64 1   9.50425000   6.78875000   9.50425000
65 1  10.86200000   0.00000000   0.00000000
66 1  10.86200000   2.71550000   2.71550000
67 1  13.57750000   0.00000000   2.71550000
68 1  13.57750000   2.71550000   0.00000000
69 1  12.21975000   1.35775000   1.35775000
70 1  14.93525000   4.07325000   1.35775000
71 1  12.21975000   4.07325000   4.07325000
72 1  14.93525000   1.35775000   4.07325000
73 1  10.86200000   0.00000000   5.43100000
74 1  10.86200000   2.71550000   8.14650000
75 1  13.57750000   0.00000000   8.14650000
76 1  13.57750000   2.71550000   5.43100000
77 1  12.21975000   1.35775000   6.78875000
78 1  14.93525000   4.07325000   6.78875000
79 1  12.21975000   4.07325000   9.50425000
80 1  14.93525000   1.35775000   9.50425000
81 1  10.86200000   5.43100000   0.00000000
82 1  10.86200000   8.14650000   2.71550000
83 1  13.57750000   5.43100000   2.71550000
84 1  13.57750000   8.14650000   0.00000000
85 1  12.21975000   6.78875000   1.35775000
86 1  14.93525000   9.50425000   1.35775000
87 1  12.21975000   9.50425000   4.07325000
88 1  14.93525000   6.78875000   4.07325000
89 1  10.86200000   5.43100000   5.43100000
90 1  10.86200000   8.14650000   8.14650000
91 1  13.57750000   5.43100000   8.14650000
92 1  13.57750000   8.14650000   5.43100000
93 1  12.21975000   6.78875000   6.78875000
94 1  14.93525000   9.50425000   6.78875000
95 1  12.21975000   9.50425000   9.50425000
96 1  14.93525000   6.78875000   9.50425000
97 1  16.29300000   0.00000000   0.00000000
98 1  16.29300000   2.71550000   2.71550000
99 1  19.00850000   0.00000000   2.71550000
100 1  19.00850000   2.71550000   0.00000000
101 1  17.65075000   1.35775000   1.35775000
102 1  20.36625000   4.07325000   1.35775000
103 1  17.65075000   4.07325000   4.07325000
104 1  20.36625000   1.35775000   4.07325000
105 1  16.29300000   0.00000000   5.43100000
106 1  16.29300000   2.71550000   8.14650000
107 1  19.00850000   0.00000000   8.14650000
108 1  19.00850000   2.71550000   5.43100000
109 1  17.65075000   1.35775000   6.78875000
110 1  20.36625000   4.07325000   6.78875000
111 1  17.65075000   4.07325000   9.50425000
112 1  20.36625000   1.35775000   9.50425000
113 1  16.29300000   5.43100000   0.00000000
114 1  16.29300000   8.14650000   2.71550000
115 1  19.00850000   5.43100000   2.71550000
116 1  19.00850000   8.14650000   0.00000000
117 1  17.65075000   6.78875000   1.35775000
118 1  20.36625000   9.50425000   1.35775000
119 1  17.65075000   9.50425000   4.07325000
120 1  20.36625000   6.78875000   4.07325000
121 1  16.29300000   5.43100000   5.43100000
122 1  16.29300000   8.14650000   8.14650000
123 1  19.00850000   5.43100000   8.14650000
124 1  19.00850000   8.14650000   5.43100000
125 1  17.65075000   6.78875000   6.78875000
126 1  20.36625000   9.50425000   6.78875000
127 1  17.65075000   9.50425000   9.50425000
128 1  20.36625000   6.78875000   9.50425000
129 1  21.72400000   0.00000000   0.00000000
130 1  21.72400000   2.71550000   2.71550000
131 1  24.43950000   0.00000000   2.71550000
132 1  24.43950000   2.71550000   0.00000000
133 1  23.08175000   1.35775000   1.35775000
134 1  25.79725000   4.07325000   1.35775000
135 1  23.08175000   4.07325000   4.07325000
136 1  25.79725000   1.35775000   4.07325000
137 1  21.72400000   0.00000000   5.43100000
138 1  21.72400000   2.71550000   8.14650000
139 1  24.43950000   0.00000000   8.14650000
140 1  24.43950000   2.71550000   5.43100000
141 1  23.08175000   1.35775000   6.78875000
142 1  25.79725000   4.07325000   6.78875000
143 1  23.08175000   4.07325000   9.50425000
144 1  25.79725000   1.35775000   9.50425000
145 1  21.72400000   5.43100000   0.00000000
146 1  21.72400000   8.14650000   2.71550000
147 1  24.43950000   5.43100000   2.71550000
148 1  24.43950000   8.14650000   0.00000000
149 1  23.08175000   6.78875000   1.35775000
150 1  25.79725000   9.50425000   1.35775000
151 1  23.08175000   9.50425000   4.07325000
152 1  25.79725000   6.78875000   4.07325000
153 1  21.72400000   5.43100000   5.43100000
154 1  21.72400000   8.14650000   8.14650000
155 1  24.43950000   5.43100000   8.14650000
156 1  24.43950000   8.14650000   5.43100000
157 1  23.08175000   6.78875000   6.78875000
158 1  25.79725000   9.50425000   6.78875000
159 1  23.08175000   9.50425000   9.50425000
160 1  25.79725000   6.78875000   9.50425000
161 1  27.15500000   0.00000000   0.00000000
162 1  27.15500000   2.71550000   2.71550000
163 1  29.87050000   0.00000000   2.71550000
164 1  29.87050000   2.71550000   0.00000000
165 1  28.51275000   1.35775000   1.35775000
166 1  31.22825000   4.07325000   1.35775000
167 1  28.51275000   4.07325000   4.07325000
168 1  31.22825000   1.35775000   4.07325000
169 1  27.15500000   0.00000000   5.43100000
170 1  27.15500000   2.71550000   8.14650000
171 1  29.87050000   0.00000000   8.14650000
172 1  29.87050000   2.71550000   5.43100000
173 1  28.51275000   1.35775000   6.78875000
174 1  31.22825000   4.07325000   6.78875000
175 1  28.51275000   4.07325000   9.50425000
176 1  31.22825000   1.35775000   9.50425000
177 1  27.15500000   5.43100000   0.00000000
178 1  27.15500000   8.14650000   2.71550000
179 1  29.87050000   5.43100000   2.71550000
180 1  29.87050000   8.14650000   0.00000000
181 1  28.51275000   6.78875000   1.35775000
182 1  31.22825000   9.50425000   1.35775000
183 1  28.51275000   9.50425000   4.07325000
184 1  31.22825000   6.78875000   4.07325000
185 1  27.15500000   5.43100000   5.43100000
186 1  27.15500000   8.14650000   8.14650000
187 1  29.87050000   5.43100000   8.14650000
188 1  29.87050000   8.14650000   5.43100000
189 1  28.51275000   6.78875000   6.78875000
190 1  31.22825000   9.50425000   6.78875000
191 1  28.51275000   9.50425000   9.50425000
192 1  31.22825000   6.78875000   9.50425000
193 1  32.58600000   0.00000000   0.00000000
194 1  32.58600000   2.71550000   2.71550000
195 1  35.30150000   0.00000000   2.71550000
196 1  35.30150000   2.71550000   0.00000000
197 1  33.94375000   1.35775000   1.35775000
198 1  36.65925000   4.07325000   1.35775000
199 1  33.94375000   4.07325000   4.07325000
200 1  36.65925000   1.35775000   4.07325000
201 1  32.58600000   0.00000000   5.43100000
202 1  32.58600000   2.71550000   8.14650000
203 1  35.30150000   0.00000000   8.14650000
204 1  35.30150000   2.71550000   5.43100000
205 1  33.94375000   1.35775000   6.78875000
206 1  36.65925000   4.07325000   6.78875000
207 1  33.94375000   4.07325000   9.50425000
208 1  36.65925000   1.35775000   9.50425000
209 1  32.58600000   5.43100000   0.00000000
210 1  32.58600000   8.14650000   2.71550000
211 1  35.30150000   5.43100000   2.71550000
212 1  35.30150000   8.14650000   0.00000000
213 1  33.94375000   6.78875000   1.35775000
214 1  36.65925000   9.50425000   1.35775000
215 1  33.94375000   9.50425000   4.07325000
216 1  36.65925000   6.78875000   4.07325000
217 1  32.58600000   5.43100000   5.43100000
218 1  32.58600000   8.14650000   8.14650000
219 1  35.30150000   5.43100000   8.14650000
220 1  35.30150000   8.14650000   5.43100000
221 1  33.94375000   6.78875000   6.78875000
222 1  36.65925000   9.50425000   6.78875000
223 1  33.94375000   9.50425000   9.50425000
224 1  36.65925000   6.78875000   9.50425000
225 1  38.01700000   0.00000000   0.00000000
226 1  38.01700000   2.71550000   2.71550000
227 1  40.73250000   0.00000000   2.71550000
228 1  40.73250000   2.71550000   0.00000000
229 1  39.37475000   1.35775000   1.35775000
230 1  42.09025000   4.07325000   1.35775000
231 1  39.37475000   4.07325000   4.07325000
232 1  42.09025000   1.35775000   4.07325000
233 1  38.01700000   0.00000000   5.43100000
234 1  38.01700000   2.71550000   8.14650000
235 1  40.73250000   0.00000000   8.14650000
236 1  40.73250000   2.71550000   5.43100000
237 1  39.37475000   1.35775000   6.78875000
238 1  42.09025000   4.07325000   6.78875000
239 1  39.37475000   4.07325000   9.50425000
240 1  42.09025000   1.35775000   9.50425000
241 1  38.01700000   5.43100000   0.00000000
242 1  38.01700000   8.14650000   2.71550000
243 1  40.73250000   5.43100000   2.71550000
244 1  40.73250000   8.14650000   0.00000000
245 1  39.37475000   6.78875000   1.35775000
246 1  42.09025000   9.50425000   1.35775000
247 1  39.37475000   9.50425000   4.07325000
248 1  42.09025000   6.78875000   4.07325000
249 1  38.01700000   5.43100000   5.43100000
250 1  38.01700000   8.14650000   8.14650000
251 1  40.73250000   5.43100000   8.14650000
252 1  40.73250000   8.14650000   5.43100000
253 1  39.37475000   6.78875000   6.78875000
254 1  42.09025000   9.50425000   6.78875000
255 1  39.37475000   9.50425000   9.50425000
256 1  42.09025000   6.78875000   9.50425000
257 1  43.44800000   0.00000000   0.00000000
258 1  43.44800000   2.71550000   2.71550000
259 1  46.16350000   0.00000000   2.71550000
260 1  46.16350000   2.71550000   0.00000000
261 1  44.80575000   1.35775000   1.35775000
262 1  47.52125000   4.07325000   1.35775000
263 1  44.80575000   4.07325000   4.07325000
264 1  47.52125000   1.35775000   4.07325000
265 1  43.44800000   0.00000000   5.43100000
266 1  43.44800000   2.71550000   8.14650000
267 1  46.16350000   0.00000000   8.14650000
268 1  46.16350000   2.71550000   5.43100000
269 1  44.80575000   1.35775000   6.78875000
270 1  47.52125000   4.07325000   6.78875000
271 1  44.80575000   4.07325000   9.50425000
272 1  47.52125000   1.35775000   9.50425000
273 1  43.44800000   5.43100000   0.00000000
274 1  43.44800000   8.14650000   2.71550000
275 1  46.16350000   5.43100000   2.71550000
276 1  46.16350000   8.14650000   0.00000000
277 1  44.80575000   6.78875000   1.35775000
278 1  47.52125000   9.50425000   1.35775000
279 1  44.80575000   9.50425000   4.07325000
280 1  47.52125000   6.78875000   4.07325000
281 1  43.44800000   5.43100000   5.43100000
282 1  43.44800000   8.14650000   8.14650000
283 1  46.16350000   5.43100000   8.14650000
284 1  46.16350000   8.14650000   5.43100000
285 1  44.80575000   6.78875000   6.78875000
286 1  47.52125000   9.50425000   6.78875000
287 1  44.80575000   9.50425000   9.50425000
288 1  47.52125000   6.78875000   9.50425000
289 1  48.87900000   0.00000000   0.00000000
290 1  48.87900000   2.71550000   2.71550000
291 1  51.59450000   0.00000000   2.71550000
292 1  51.59450000   2.71550000   0.00000000
293 1  50.23675000   1.35775000   1.35775000
294 1  52.95225000   4.07325000   1.35775000
295 1  50.23675000   4.07325000   4.07325000
296 1  52.95225000   1.35775000   4.07325000
297 1  48.87900000   0.00000000   5.43100000
298 1  48.87900000   2.71550000   8.14650000
299 1  51.59450000   0.00000000   8.14650000
300 1  51.59450000   2.71550000   5.43100000
301 1  50.23675000   1.35775000   6.78875000
302 1  52.95225000   4.07325000   6.78875000
303 1  50.23675000   4.07325000   9.50425000
304 1  52.95225000   1.35775000   9.50425000
305 1  48.87900000   5.43100000   0.00000000
306 1  48.87900000   8.14650000   2.71550000
307 1  51.59450000   5.43100000   2.71550000
308 1  51.59450000   8.14650000   0.00000000
309 1  50.23675000   6.78875000   1.35775000
310 1  52.95225000   9.50425000   1.35775000
311 1  50.23675000   9.50425000   4.07325000
312 1  52.95225000   6.78875000   4.07325000
313 1  48.87900000   5.43100000   5.43100000
314 1  48.87900000   8.14650000   8.14650000
315 1  51.59450000   5.43100000   8.14650000
316 1  51.59450000   8.14650000   5.43100000
317 1  50.23675000   6.78875000   6.78875000
318 1  52.95225000   9.50425000   6.78875000
319 1  50.23675000   9.50425000   9.50425000
320 1  52.95225000   6.78875000   9.50425000
321 1  54.31000000   0.00000000   0.00000000
322 1  54.31000000   2.71550000   2.71550000
323 1  57.02550000   0.00000000   2.71550000
324 1  57.02550000   2.71550000   0.00000000
325 1  55.66775000   1.35775000   1.35775000
326 1  58.38325000   4.07325000   1.35775000
327 1  55.66775000   4.07325000   4.07325000
328 1  58.38325000   1.35775000   4.07325000
329 1  54.31000000   0.00000000   5.43100000
330 1  54.31000000   2.71550000   8.14650000
331 1  57.02550000   0.00000000   8.14650000
332 1  57.02550000   2.71550000   5.43100000
333 1  55.66775000   1.35775000   6.78875000
334 1  58.38325000   4.07325000   6.78875000
335 1  55.66775000   4.07325000   9.50425000
336 1  58.38325000   1.35775000   9.50425000
337 1  54.31000000   5.43100000   0.00000000
338 1  54.31000000   8.14650000   2.71550000
339 1  57.02550000   5.43100000   2.71550000
340 1  57.02550000   8.14650000   0.00000000
341 1  55.66775000   6.78875000   1.35775000
342 1  58.38325000   9.50425000   1.35775000
343 1  55.66775000   9.50425000   4.07325000
344 1  58.38325000   6.78875000   4.07325000
345 1  54.31000000   5.43100000   5.43100000
346 1  54.31000000   8.14650000   8.14650000
347 1  57.02550000   5.43100000   8.14650000
348 1  57.02550000   8.14650000   5.43100000
349 1  55.66775000   6.78875000   6.78875000
350 1  58.38325000   9.50425000   6.78875000
351 1  55.66775000   9.50425000   9.50425000
352 1  58.38325000   6.78875000   9.50425000
353 1  59.74100000   0.00000000   0.00000000
354 1  59.74100000   2.71550000   2.71550000
355 1  62.45650000   0.00000000   2.71550000
356 1  62.45650000   2.71550000   0.00000000
357 1  61.09875000   1.35775000   1.35775000
358 1  63.81425000   4.07325000   1.35775000
359 1  61.09875000   4.07325000   4.07325000
360 1  63.81425000   1.35775000   4.07325000
361 1  59.74100000   0.00000000   5.43100000
362 1  59.74100000   2.71550000   8.14650000
363 1  62.45650000   0.00000000   8.14650000
364 1  62.45650000   2.71550000   5.43100000
365 1  61.09875000   1.35775000   6.78875000
366 1  63.81425000   4.07325000   6.78875000
367 1  61.09875000   4.07325000   9.50425000
368 1  63.81425000   1.35775000   9.50425000
369 1  59.74100000   5.43100000   0.00000000
370 1  59.74100000   8.14650000   2.71550000
371 1  62.45650000   5.43100000   2.71550000
372 1  62.45650000   8.14650000   0.00000000
373 1  61.09875000   6.78875000   1.35775000
374 1  63.81425000   9.50425000   1.35775000
375 1  61.09875000   9.50425000   4.07325000
376 1  63.81425000   6.78875000   4.07325000
377 1  59.74100000   5.43100000   5.43100000
378 1  59.74100000   8.14650000   8.14650000
379 1  62.45650000   5.43100000   8.14650000
380 1  62.45650000   8.14650000   5.43100000
381 1  61.09875000   6.78875000   6.78875000
382 1  63.81425000   9.50425000   6.78875000
383 1  61.09875000   9.50425000   9.50425000
384 1  63.81425000   6.78875000   9.50425000
385 1  65.17200000   0.00000000   0.00000000
386 1  65.17200000   2.71550000   2.71550000
387 1  67.88750000   0.00000000   2.71550000
388 1  67.88750000   2.71550000   0.00000000
389 1  66.52975000   1.35775000   1.35775000
390 1  69.24525000   4.07325000   1.35775000
391 1  66.52975000   4.07325000   4.07325000
392 1  69.24525000   1.35775000   4.07325000
393 1  65.17200000   0.00000000   5.43100000
394 1  65.17200000   2.71550000   8.14650000
395 1  67.88750000   0.00000000   8.14650000
396 1  67.88750000   2.71550000   5.43100000
397 1  66.52975000   1.35775000   6.78875000
398 1  69.24525000   4.07325000   6.78875000
399 1  66.52975000   4.07325000   9.50425000
400 1  69.24525000   1.35775000   9.50425000
401 1  65.17200000   5.43100000   0.00000000
402 1  65.17200000   8.14650000   2.71550000
403 1  67.88750000   5.43100000   2.71550000
404 1  67.88750000   8.14650000   0.00000000
405 1  66.52975000   6.78875000   1.35775000
406 1  69.24525000   9.50425000   1.35775000
407 1  66.52975000   9.50425000   4.07325000
408 1  69.24525000   6.78875000   4.07325000
409 1  65.17200000   5.43100000   5.43100000
410 1  65.17200000   8.14650000   8.14650000
411 1  67.88750000   5.43100000   8.14650000
412 1  67.88750000   8.14650000   5.43100000
413 1  66.52975000   6.78875000   6.78875000
414 1  69.24525000   9.50425000   6.78875000
415 1  66.52975000   9.50425000   9.50425000
416 1  69.24525000   6.78875000   9.50425000
417 1  70.60300000   0.00000000   0.00000000
418 1  70.60300000   2.71550000   2.71550000
419 1  73.31850000   0.00000000   2.71550000
420 1  73.31850000   2.71550000   0.00000000
421 1  71.96075000   1.35775000   1.35775000
422 1  74.67625000   4.07325000   1.35775000
423 1  71.96075000   4.07325000   4.07325000
424 1  74.67625000   1.35775000   4.07325000
425 1  70.60300000   0.00000000   5.43100000
426 1  70.60300000   2.71550000   8.14650000
427 1  73.31850000   0.00000000   8.14650000
428 1  73.31850000   2.71550000   5.43100000
429 1  71.96075000   1.35775000   6.78875000
430 1  74.67625000   4.07325000   6.78875000
431 1  71.96075000   4.07325000   9.50425000
432 1  74.67625000   1.35775000   9.50425000
433 1  70.60300000   5.43100000   0.00000000
434 1  70.60300000   8.14650000   2.71550000
435 1  73.31850000   5.43100000   2.71550000
436 1  73.31850000   8.14650000   0.00000000
437 1  71.96075000   6.78875000   1.35775000
438 1  74.67625000   9.50425000   1.35775000
439 1  71.96075000   9.50425000   4.07325000
440 1  74.67625000   6.78875000   4.07325000
441 1  70.60300000   5.43100000   5.43100000
442 1  70.60300000   8.14650000   8.14650000
443 1  73.31850000   5.43100000   8.14650000
444 1  73.31850000   8.14650000   5.43100000
445 1  71.96075000   6.78875000   6.78875000
446 1  74.67625000   9.50425000   6.78875000
447 1  71.96075000   9.50425000   9.50425000
448 1  74.67625000   6.78875000   9.50425000
449 1  76.03400000   0.00000000   0.00000000
450 1  76.03400000   2.71550000   2.71550000
451 1  78.74950000   0.00000000   2.71550000
452 1  78.74950000   2.71550000   0.00000000
453 1  77.39175000   1.35775000   1.35775000
454 1  80.10725000   4.07325000   1.35775000
455 1  77.39175000   4.07325000   4.07325000
456 1  80.10725000   1.35775000   4.07325000
457 1  76.03400000   0.00000000   5.43100000
458 1  76.03400000   2.71550000   8.14650000
459 1  78.74950000   0.00000000   8.14650000
460 1  78.74950000   2.71550000   5.43100000
461 1  77.39175000   1.35775000   6.78875000
462 1  80.10725000   4.07325000   6.78875000
463 1  77.39175000   4.07325000   9.50425000
464 1  80.10725000   1.35775000   9.50425000
465 1  76.03400000   5.43100000   0.00000000
466 1  76.03400000   8.14650000   2.71550000
467 1  78.74950000   5.43100000   2.71550000
468 1  78.74950000   8.14650000   0.00000000
469 1  77.39175000   6.78875000   1.35775000
470 1  80.10725000   9.50425000   1.35775000
471 1  77.39175000   9.50425000   4.07325000
472 1  80.10725000   6.78875000   4.07325000
473 1  76.03400000   5.43100000   5.43100000
474 1  76.03400000   8.14650000   8.14650000
475 1  78.74950000   5.43100000   8.14650000
476 1  78.74950000   8.14650000   5.43100000
477 1  77.39175000   6.78875000   6.78875000
478 1  80.10725000   9.50425000   6.78875000
479 1  77.39175000   9.50425000   9.50425000
480 1  80.10725000   6.78875000   9.50425000
481 1  81.46500000   0.00000000   0.00000000
482 1  81.46500000   2.71550000   2.71550000
483 1  84.18050000   0.00000000   2.71550000
484 1  84.18050000   2.71550000   0.00000000
485 1  82.82275000   1.35775000   1.35775000
486 1  85.53825000   4.07325000   1.35775000
487 1  82.82275000   4.07325000   4.07325000
488 1  85.53825000   1.35775000   4.07325000
489 1  81.46500000   0.00000000   5.43100000
490 1  81.46500000   2.71550000   8.14650000
491 1  84.18050000   0.00000000   8.14650000
492 1  84.18050000   2.71550000   5.43100000
493 1  82.82275000   1.35775000   6.78875000
494 1  85.53825000   4.07325000   6.78875000
495 1  82.82275000   4.07325000   9.50425000
496 1  85.53825000   1.35775000   9.50425000
497 1  81.46500000   5.43100000   0.00000000
498 1  81.46500000   8.14650000   2.71550000
499 1  84.18050000   5.43100000   2.71550000
500 1  84.18050000   8.14650000   0.00000000
501 1  82.82275000   6.78875000   1.35775000
502 1  85.53825000   9.50425000   1.35775000
503 1  82.82275000   9.50425000   4.07325000
504 1  85.53825000   6.78875000   4.07325000
505 1  81.46500000   5.43100000   5.43100000
506 1  81.46500000   8.14650000   8.14650000
507 1  84.18050000   5.43100000   8.14650000
508 1  84.18050000   8.14650000   5.43100000
509 1  82.82275000   6.78875000   6.78875000
510 1  85.53825000   9.50425000   6.78875000
511 1  82.82275000   9.50425000   9.50425000
512 1  85.53825000   6.78875000   9.50425000