LAMMPS DATA FILE

54000 atoms

2 atom types

-1.9201484643120699 113.28875939441211 xlo xhi
-1.66289734913193 98.11094359878388 ylo yhi
-1.1758459919883217 92.89183336707741 zlo zhi
57.6044539293621 57.6044539293621 33.25794698263861 xy xz yz

Masses

1 28.0855
2 28.0855

Atoms

1 1 0.0 0.0 0.0
2 2 1.9201484643120699 1.1085982327546202 0.7838973279922145
3 1 3.8402969286241397 0.0 0.0
4 2 5.76044539293621 1.1085982327546202 0.7838973279922145
5 1 7.6805938572482795 0.0 0.0
6 2 9.60074232156035 1.1085982327546202 0.7838973279922145
7 1 11.52089078587242 0.0 0.0
8 2 13.44103925018449 1.1085982327546202 0.7838973279922145
9 1 15.361187714496559 0.0 0.0
10 2 17.28133617880863 1.1085982327546202 0.7838973279922145
11 1 19.2014846431207 0.0 0.0
12 2 21.121633107432768 1.1085982327546202 0.7838973279922145
13 1 23.04178157174484 0.0 0.0
14 2 24.961930036056906 1.1085982327546202 0.7838973279922145
15 1 26.88207850036898 0.0 0.0
16 2 28.80222696468105 1.1085982327546202 0.7838973279922145
17 1 30.722375428993118 0.0 0.0
18 2 32.64252389330519 1.1085982327546202 0.7838973279922145
19 1 34.56267235761726 0.0 0.0
20 2 36.48282082192933 1.1085982327546202 0.7838973279922145
21 1 38.4029692862414 0.0 0.0
22 2 40.32311775055347 1.1085982327546202 0.7838973279922145
23 1 42.243266214865535 0.0 0.0
24 2 44.163414679177606 1.1085982327546202 0.7838973279922145
25 1 46.08356314348968 0.0 0.0
26 2 48.00371160780175 1.1085982327546202 0.7838973279922145
27 1 49.92386007211381 0.0 0.0
28 2 51.84400853642589 1.1085982327546202 0.7838973279922145
29 1 53.76415700073796 0.0 0.0
30 2 55.68430546505002 1.1085982327546202 0.7838973279922145
31 1 57.6044539293621 0.0 0.0
32 2 59.524602393674165 1.1085982327546202 0.7838973279922145
33 1 61.444750857986236 0.0 0.0
34 2 63.364899322298314 1.1085982327546202 0.7838973279922145
35 1 65.28504778661038 0.0 0.0
36 2 67.20519625092246 1.1085982327546202 0.7838973279922145
37 1 69.12534471523452 0.0 0.0
38 2 71.04549317954658 1.1085982327546202 0.7838973279922145
39 1 72.96564164385866 0.0 0.0
40 2 74.88579010817072 1.1085982327546202 0.7838973279922145
41 1 76.8059385724828 0.0 0.0
42 2 78.72608703679487 1.1085982327546202 0.7838973279922145
43 1 80.64623550110694 0.0 0.0
44 2 82.566383965419 1.1085982327546202 0.7838973279922145
45 1 84.48653242973107 0.0 0.0
46 2 86.40668089404315 1.1085982327546202 0.7838973279922145
47 1 88.32682935835521 0.0 0.0
48 2 90.24697782266729 1.1085982327546202 0.7838973279922145
49 1 92.16712628697935 0.0 0.0
50 2 94.08727475129143 1.1085982327546202 0.7838973279922145
51 1 96.0074232156035 0.0 0.0
52 2 97.92757167991556 1.1085982327546202 0.7838973279922145
53 1 99.84772014422762 0.0 0.0
54 2 101.76786860853971 1.1085982327546202 0.7838973279922145
55 1 103.68801707285178 0.0 0.0
56 2 105.60816553716384 1.1085982327546202 0.7838973279922145
57 1 107.52831400147592 0.0 0.0
58 2 109.44846246578798 1.1085982327546202 0.7838973279922145
59 1 111.36861093010005 0.0 0.0
60 2 113.28875939441214 1.1085982327546202 0.7838973279922145
61 1 1.9201484643120699 3.32579469826386 0.0
62 2 3.8402969286241397 4.434392931018481 0.7838973279922145
63 1 5.76044539293621 3.32579469826386 0.0
64 2 7.6805938572482795 4.434392931018481 0.7838973279922145
65 1 9.60074232156035 3.32579469826386 0.0
66 2 11.52089078587242 4.434392931018481 0.7838973279922145
67 1 13.44103925018449 3.32579469826386 0.0
68 2 15.361187714496559 4.434392931018481 0.7838973279922145
69 1 17.28133617880863 3.32579469826386 0.0
70 2 19.2014846431207 4.434392931018481 0.7838973279922145
71 1 21.121633107432768 3.32579469826386 0.0
72 2 23.04178157174484 4.434392931018481 0.7838973279922145
73 1 24.961930036056906 3.32579469826386 0.0
74 2 26.88207850036898 4.434392931018481 0.7838973279922145
75 1 28.80222696468105 3.32579469826386 0.0
76 2 30.722375428993118 4.434392931018481 0.7838973279922145
77 1 32.64252389330519 3.32579469826386 0.0
78 2 34.56267235761726 4.434392931018481 0.7838973279922145
79 1 36.48282082192933 3.32579469826386 0.0
80 2 38.4029692862414 4.434392931018481 0.7838973279922145
81 1 40.32311775055347 3.32579469826386 0.0
82 2 42.243266214865535 4.434392931018481 0.7838973279922145
83 1 44.163414679177606 3.32579469826386 0.0
84 2 46.08356314348968 4.434392931018481 0.7838973279922145
85 1 48.00371160780175 3.32579469826386 0.0
86 2 49.92386007211381 4.434392931018481 0.7838973279922145
87 1 51.84400853642589 3.32579469826386 0.0
88 2 53.76415700073796 4.434392931018481 0.7838973279922145
89 1 55.68430546505002 3.32579469826386 0.0
90 2 57.6044539293621 4.434392931018481 0.7838973279922145
91 1 59.524602393674165 3.32579469826386 0.0
92 2 61.444750857986236 4.434392931018481 0.7838973279922145
93 1 63.364899322298314 3.32579469826386 0.0
94 2 65.28504778661038 4.434392931018481 0.7838973279922145
95 1 67.20519625092246 3.32579469826386 0.0
96 2 69.12534471523452 4.434392931018481 0.7838973279922145
97 1 71.04549317954658 3.32579469826386 0.0
98 2 72.96564164385866 4.434392931018481 0.7838973279922145
99 1 74.88579010817072 3.32579469826386 0.0
100 2 76.8059385724828 4.434392931018481 0.7838973279922145
101 1 78.72608703679487 3.32579469826386 0.0
102 2 80.64623550110694 4.434392931018481 0.7838973279922145
103 1 82.566383965419 3.32579469826386 0.0
104 2 84.48653242973107 4.434392931018481 0.7838973279922145
105 1 86.40668089404315 3.32579469826386 0.0
106 2 88.32682935835521 4.434392931018481 0.7838973279922145
107 1 90.24697782266729 3.32579469826386 0.0
108 2 92.16712628697935 4.434392931018481 0.7838973279922145
109 1 94.08727475129143 3.32579469826386 0.0
110 2 96.0074232156035 4.434392931018481 0.7838973279922145
111 1 97.92757167991556 3.32579469826386 0.0
112 2 99.84772014422762 4.434392931018481 0.7838973279922145
113 1 101.76786860853971 3.32579469826386 0.0
114 2 103.68801707285178 4.434392931018481 0.7838973279922145
115 1 105.60816553716384 3.32579469826386 0.0
116 2 107.52831400147592 4.434392931018481 0.7838973279922145
117 1 109.44846246578798 3.32579469826386 0.0
118 2 111.36861093010005 4.434392931018481 0.7838973279922145
119 1 113.28875939441214 3.32579469826386 0.0
120 2 115.2089078587242 4.434392931018481 0.7838973279922145
121 1 3.8402969286241397 6.65158939652772 0.0
122 2 5.76044539293621 7.760187629282341 0.7838973279922145
123 1 7.6805938572482795 6.65158939652772 0.0
124 2 9.60074232156035 7.760187629282341 0.7838973279922145
125 1 11.52089078587242 6.65158939652772 0.0
126 2 13.44103925018449 7.760187629282341 0.7838973279922145
127 1 15.361187714496559 6.65158939652772 0.0
128 2 17.28133617880863 7.760187629282341 0.7838973279922145
129 1 19.2014846431207 6.65158939652772 0.0
130 2 21.121633107432768 7.760187629282341 0.7838973279922145
131 1 23.04178157174484 6.65158939652772 0.0
132 2 24.961930036056906 7.760187629282341 0.7838973279922145
133 1 26.88207850036898 6.65158939652772 0.0
134 2 28.80222696468105 7.760187629282341 0.7838973279922145
135 1 30.722375428993118 6.65158939652772 0.0
136 2 32.64252389330519 7.760187629282341 0.7838973279922145
137 1 34.56267235761726 6.65158939652772 0.0
138 2 36.48282082192933 7.760187629282341 0.7838973279922145
139 1 38.4029692862414 6.65158939652772 0.0
140 2 40.32311775055347 7.760187629282341 0.7838973279922145
141 1 42.243266214865535 6.65158939652772 0.0
142 2 44.163414679177606 7.760187629282341 0.7838973279922145
143 1 46.08356314348968 6.65158939652772 0.0
144 2 48.00371160780175 7.760187629282341 0.7838973279922145
145 1 49.92386007211381 6.65158939652772 0.0
146 2 51.84400853642589 7.760187629282341 0.7838973279922145
147 1 53.76415700073796 6.65158939652772 0.0
148 2 55.68430546505002 7.760187629282341 0.7838973279922145
149 1 57.6044539293621 6.65158939652772 0.0
150 2 59.524602393674165 7.760187629282341 0.7838973279922145
151 1 61.444750857986236 6.65158939652772 0.0
152 2 63.364899322298314 7.760187629282341 0.7838973279922145
153 1 65.28504778661038 6.65158939652772 0.0
154 2 67.20519625092246 7.760187629282341 0.7838973279922145
155 1 69.12534471523452 6.65158939652772 0.0
156 2 71.04549317954658 7.760187629282341 0.7838973279922145
157 1 72.96564164385866 6.65158939652772 0.0
158 2 74.88579010817072 7.760187629282341 0.7838973279922145
159 1 76.8059385724828 6.65158939652772 0.0
160 2 78.72608703679487 7.760187629282341 0.7838973279922145
161 1 80.64623550110694 6.65158939652772 0.0
162 2 82.566383965419 7.760187629282341 0.7838973279922145
163 1 84.48653242973107 6.65158939652772 0.0
164 2 86.40668089404315 7.760187629282341 0.7838973279922145
165 1 88.32682935835521 6.65158939652772 0.0
166 2 90.24697782266729 7.760187629282341 0.7838973279922145
167 1 92.16712628697935 6.65158939652772 0.0
168 2 94.08727475129143 7.760187629282341 0.7838973279922145
169 1 96.0074232156035 6.65158939652772 0.0
170 2 97.92757167991556 7.760187629282341 0.7838973279922145
171 1 99.84772014422762 6.65158939652772 0.0
172 2 101.76786860853971 7.760187629282341 0.7838973279922145
173 1 103.68801707285178 6.65158939652772 0.0
174 2 105.60816553716384 7.760187629282341 0.7838973279922145
175 1 107.52831400147592 6.65158939652772 0.0
176 2 109.44846246578798 7.760187629282341 0.7838973279922145
177 1 111.36861093010005 6.65158939652772 0.0
178 2 113.28875939441214 7.760187629282341 0.7838973279922145
179 1 115.2089078587242 6.65158939652772 0.0
180 2 117.12905632303627 7.760187629282341 0.7838973279922145
181 1 5.76044539293621 9.977384094791582 0.0
182 2 7.6805938572482795 11.085982327546201 0.7838973279922145
183 1 9.60074232156035 9.977384094791582 0.0
184 2 11.52089078587242 11.085982327546201 0.7838973279922145
185 1 13.44103925018449 9.977384094791582 0.0
186 2 15.361187714496559 11.085982327546201 0.7838973279922145
187 1 17.28133617880863 9.977384094791582 0.0
188 2 19.2014846431207 11.085982327546201 0.7838973279922145
189 1 21.121633107432768 9.977384094791582 0.0
190 2 23.04178157174484 11.085982327546201 0.7838973279922145
191 1 24.961930036056906 9.977384094791582 0.0
192 2 26.88207850036898 11.085982327546201 0.7838973279922145
193 1 28.80222696468105 9.977384094791582 0.0
194 2 30.722375428993118 11.085982327546201 0.7838973279922145
195 1 32.64252389330519 9.977384094791582 0.0
196 2 34.56267235761726 11.085982327546201 0.7838973279922145
197 1 36.48282082192933 9.977384094791582 0.0
198 2 38.4029692862414 11.085982327546201 0.7838973279922145
199 1 40.32311775055347 9.977384094791582 0.0
200 2 42.243266214865535 11.085982327546201 0.7838973279922145
201 1 44.163414679177606 9.977384094791582 0.0
202 2 46.08356314348968 11.085982327546201 0.7838973279922145
203 1 48.00371160780175 9.977384094791582 0.0
204 2 49.92386007211381 11.085982327546201 0.7838973279922145
205 1 51.84400853642589 9.977384094791582 0.0
206 2 53.76415700073796 11.085982327546201 0.7838973279922145
207 1 55.68430546505002 9.977384094791582 0.0
208 2 57.6044539293621 11.085982327546201 0.7838973279922145
209 1 59.524602393674165 9.977384094791582 0.0
210 2 61.444750857986236 11.085982327546201 0.7838973279922145
211 1 63.364899322298314 9.977384094791582 0.0
212 2 65.28504778661038 11.085982327546201 0.7838973279922145
213 1 67.20519625092246 9.977384094791582 0.0
214 2 69.12534471523452 11.085982327546201 0.7838973279922145
215 1 71.04549317954658 9.977384094791582 0.0
216 2 72.96564164385866 11.085982327546201 0.7838973279922145
217 1 74.88579010817072 9.977384094791582 0.0
218 2 76.8059385724828 11.085982327546201 0.7838973279922145
219 1 78.72608703679487 9.977384094791582 0.0
220 2 80.64623550110694 11.085982327546201 0.7838973279922145
221 1 82.566383965419 9.977384094791582 0.0
222 2 84.48653242973107 11.085982327546201 0.7838973279922145
223 1 86.40668089404315 9.977384094791582 0.0
224 2 88.32682935835521 11.085982327546201 0.7838973279922145
225 1 90.24697782266729 9.977384094791582 0.0
226 2 92.16712628697935 11.085982327546201 0.7838973279922145
227 1 94.08727475129143 9.977384094791582 0.0
228 2 96.0074232156035 11.085982327546201 0.7838973279922145
229 1 97.92757167991556 9.977384094791582 0.0
230 2 99.84772014422762 11.085982327546201 0.7838973279922145
231 1 101.76786860853971 9.977384094791582 0.0
232 2 103.68801707285178 11.085982327546201 0.7838973279922145
233 1 105.60816553716384 9.977384094791582 0.0
234 2 107.52831400147592 11.085982327546201 0.7838973279922145
235 1 109.44846246578798 9.977384094791582 0.0
236 2 111.36861093010005 11.085982327546201 0.7838973279922145
237 1 113.28875939441214 9.977384094791582 0.0
238 2 115.2089078587242 11.085982327546201 0.7838973279922145
239 1 117.12905632303627 9.977384094791582 0.0
240 2 119.04920478734833 11.085982327546201 0.7838973279922145
241 1 7.6805938572482795 13.30317879305544 0.0
242 2 9.60074232156035 14.41177702581006 0.7838973279922145
243 1 11.52089078587242 13.30317879305544 0.0
244 2 13.44103925018449 14.41177702581006 0.7838973279922145
245 1 15.361187714496559 13.30317879305544 0.0
246 2 17.28133617880863 14.41177702581006 0.7838973279922145
247 1 19.2014846431207 13.30317879305544 0.0
248 2 21.121633107432768 14.41177702581006 0.7838973279922145
249 1 23.04178157174484 13.30317879305544 0.0
250 2 24.961930036056906 14.41177702581006 0.7838973279922145
251 1 26.88207850036898 13.30317879305544 0.0
252 2 28.80222696468105 14.41177702581006 0.7838973279922145
253 1 30.722375428993118 13.30317879305544 0.0
254 2 32.64252389330519 14.41177702581006 0.7838973279922145
255 1 34.56267235761726 13.30317879305544 0.0
256 2 36.48282082192933 14.41177702581006 0.7838973279922145
257 1 38.4029692862414 13.30317879305544 0.0
258 2 40.32311775055347 14.41177702581006 0.7838973279922145
259 1 42.243266214865535 13.30317879305544 0.0
260 2 44.163414679177606 14.41177702581006 0.7838973279922145
261 1 46.08356314348968 13.30317879305544 0.0
262 2 48.00371160780175 14.41177702581006 0.7838973279922145
263 1 49.92386007211381 13.30317879305544 0.0
264 2 51.84400853642589 14.41177702581006 0.7838973279922145
265 1 53.76415700073796 13.30317879305544 0.0
266 2 55.68430546505002 14.41177702581006 0.7838973279922145
267 1 57.6044539293621 13.30317879305544 0.0
268 2 59.524602393674165 14.41177702581006 0.7838973279922145
269 1 61.444750857986236 13.30317879305544 0.0
270 2 63.364899322298314 14.41177702581006 0.7838973279922145
271 1 65.28504778661038 13.30317879305544 0.0
272 2 67.20519625092246 14.41177702581006 0.7838973279922145
273 1 69.12534471523452 13.30317879305544 0.0
274 2 71.04549317954658 14.41177702581006 0.7838973279922145
275 1 72.96564164385866 13.30317879305544 0.0
276 2 74.88579010817072 14.41177702581006 0.7838973279922145
277 1 76.8059385724828 13.30317879305544 0.0
278 2 78.72608703679487 14.41177702581006 0.7838973279922145
279 1 80.64623550110694 13.30317879305544 0.0
280 2 82.566383965419 14.41177702581006 0.7838973279922145
281 1 84.48653242973107 13.30317879305544 0.0
282 2 86.40668089404315 14.41177702581006 0.7838973279922145
283 1 88.32682935835521 13.30317879305544 0.0
284 2 90.24697782266729 14.41177702581006 0.7838973279922145
285 1 92.16712628697935 13.30317879305544 0.0
286 2 94.08727475129143 14.41177702581006 0.7838973279922145
287 1 96.0074232156035 13.30317879305544 0.0
288 2 97.92757167991556 14.41177702581006 0.7838973279922145
289 1 99.84772014422762 13.30317879305544 0.0
290 2 101.76786860853971 14.41177702581006 0.7838973279922145
291 1 103.68801707285178 13.30317879305544 0.0
292 2 105.60816553716384 14.41177702581006 0.7838973279922145
293 1 107.52831400147592 13.30317879305544 0.0
294 2 109.44846246578798 14.41177702581006 0.7838973279922145
295 1 111.36861093010005 13.30317879305544 0.0
296 2 113.28875939441214 14.41177702581006 0.7838973279922145
297 1 115.2089078587242 13.30317879305544 0.0
298 2 117.12905632303627 14.41177702581006 0.7838973279922145
299 1 119.04920478734833 13.30317879305544 0.0
300 2 120.96935325166041 14.41177702581006 0.7838973279922145
301 1 9.60074232156035 16.628973491319304 0.0
302 2 11.52089078587242 17.737571724073923 0.7838973279922145
303 1 13.44103925018449 16.628973491319304 0.0
304 2 15.361187714496559 17.737571724073923 0.7838973279922145
305 1 17.28133617880863 16.628973491319304 0.0
306 2 19.2014846431207 17.737571724073923 0.7838973279922145
307 1 21.121633107432768 16.628973491319304 0.0
308 2 23.04178157174484 17.737571724073923 0.7838973279922145
309 1 24.961930036056906 16.628973491319304 0.0
310 2 26.88207850036898 17.737571724073923 0.7838973279922145
311 1 28.80222696468105 16.628973491319304 0.0
312 2 30.722375428993118 17.737571724073923 0.7838973279922145
313 1 32.64252389330519 16.628973491319304 0.0
314 2 34.56267235761726 17.737571724073923 0.7838973279922145
315 1 36.48282082192933 16.628973491319304 0.0
316 2 38.4029692862414 17.737571724073923 0.7838973279922145
317 1 40.32311775055347 16.628973491319304 0.0
318 2 42.243266214865535 17.737571724073923 0.7838973279922145
319 1 44.163414679177606 16.628973491319304 0.0
320 2 46.08356314348968 17.737571724073923 0.7838973279922145
321 1 48.00371160780175 16.628973491319304 0.0
322 2 49.92386007211381 17.737571724073923 0.7838973279922145
323 1 51.84400853642589 16.628973491319304 0.0
324 2 53.76415700073796 17.737571724073923 0.7838973279922145
325 1 55.68430546505002 16.628973491319304 0.0
326 2 57.6044539293621 17.737571724073923 0.7838973279922145
327 1 59.524602393674165 16.628973491319304 0.0
328 2 61.444750857986236 17.737571724073923 0.7838973279922145
329 1 63.364899322298314 16.628973491319304 0.0
330 2 65.28504778661038 17.737571724073923 0.7838973279922145
331 1 67.20519625092246 16.628973491319304 0.0
332 2 69.12534471523452 17.737571724073923 0.7838973279922145
333 1 71.04549317954658 16.628973491319304 0.0
334 2 72.96564164385866 17.737571724073923 0.7838973279922145
335 1 74.88579010817072 16.628973491319304 0.0
336 2 76.8059385724828 17.737571724073923 0.7838973279922145
337 1 78.72608703679487 16.628973491319304 0.0
338 2 80.64623550110694 17.737571724073923 0.7838973279922145
339 1 82.566383965419 16.628973491319304 0.0
340 2 84.48653242973107 17.737571724073923 0.7838973279922145
341 1 86.40668089404315 16.628973491319304 0.0
342 2 88.32682935835521 17.737571724073923 0.7838973279922145
343 1 90.24697782266729 16.628973491319304 0.0
344 2 92.16712628697935 17.737571724073923 0.7838973279922145
345 1 94.08727475129143 16.628973491319304 0.0
346 2 96.0074232156035 17.737571724073923 0.7838973279922145
347 1 97.92757167991556 16.628973491319304 0.0
348 2 99.84772014422762 17.737571724073923 0.7838973279922145
349 1 101.76786860853971 16.628973491319304 0.0
350 2 103.68801707285178 17.737571724073923 0.7838973279922145
351 1 105.60816553716384 16.628973491319304 0.0
352 2 107.52831400147592 17.737571724073923 0.7838973279922145
353 1 109.44846246578798 16.628973491319304 0.0
354 2 111.36861093010005 17.737571724073923 0.7838973279922145
355 1 113.28875939441214 16.628973491319304 0.0
356 2 115.2089078587242 17.737571724073923 0.7838973279922145
357 1 117.12905632303627 16.628973491319304 0.0
358 2 119.04920478734833 17.737571724073923 0.7838973279922145
359 1 120.96935325166041 16.628973491319304 0.0
360 2 122.88950171597247 17.737571724073923 0.7838973279922145
361 1 11.52089078587242 19.954768189583163 0.0
362 2 13.44103925018449 21.063366422337783 0.7838973279922145
363 1 15.361187714496559 19.954768189583163 0.0
364 2 17.28133617880863 21.063366422337783 0.7838973279922145
365 1 19.2014846431207 19.954768189583163 0.0
366 2 21.121633107432768 21.063366422337783 0.7838973279922145
367 1 23.04178157174484 19.954768189583163 0.0
368 2 24.961930036056906 21.063366422337783 0.7838973279922145
369 1 26.88207850036898 19.954768189583163 0.0
370 2 28.80222696468105 21.063366422337783 0.7838973279922145
371 1 30.722375428993118 19.954768189583163 0.0
372 2 32.64252389330519 21.063366422337783 0.7838973279922145
373 1 34.56267235761726 19.954768189583163 0.0
374 2 36.48282082192933 21.063366422337783 0.7838973279922145
375 1 38.4029692862414 19.954768189583163 0.0
376 2 40.32311775055347 21.063366422337783 0.7838973279922145
377 1 42.243266214865535 19.954768189583163 0.0
378 2 44.163414679177606 21.063366422337783 0.7838973279922145
379 1 46.08356314348968 19.954768189583163 0.0
380 2 48.00371160780175 21.063366422337783 0.7838973279922145
381 1 49.92386007211381 19.954768189583163 0.0
382 2 51.84400853642589 21.063366422337783 0.7838973279922145
383 1 53.76415700073796 19.954768189583163 0.0
384 2 55.68430546505002 21.063366422337783 0.7838973279922145
385 1 57.6044539293621 19.954768189583163 0.0
386 2 59.524602393674165 21.063366422337783 0.7838973279922145
387 1 61.444750857986236 19.954768189583163 0.0
388 2 63.364899322298314 21.063366422337783 0.7838973279922145
389 1 65.28504778661038 19.954768189583163 0.0
390 2 67.20519625092246 21.063366422337783 0.7838973279922145
391 1 69.12534471523452 19.954768189583163 0.0
392 2 71.04549317954658 21.063366422337783 0.7838973279922145
393 1 72.96564164385866 19.954768189583163 0.0
394 2 74.88579010817072 21.063366422337783 0.7838973279922145
395 1 76.8059385724828 19.954768189583163 0.0
396 2 78.72608703679487 21.063366422337783 0.7838973279922145
397 1 80.64623550110694 19.954768189583163 0.0
398 2 82.566383965419 21.063366422337783 0.7838973279922145
399 1 84.48653242973107 19.954768189583163 0.0
400 2 86.40668089404315 21.063366422337783 0.7838973279922145
401 1 88.32682935835521 19.954768189583163 0.0
402 2 90.24697782266729 21.063366422337783 0.7838973279922145
403 1 92.16712628697935 19.954768189583163 0.0
404 2 94.08727475129143 21.063366422337783 0.7838973279922145
405 1 96.0074232156035 19.954768189583163 0.0
406 2 97.92757167991556 21.063366422337783 0.7838973279922145
407 1 99.84772014422762 19.954768189583163 0.0
408 2 101.76786860853971 21.063366422337783 0.7838973279922145
409 1 103.68801707285178 19.954768189583163 0.0
410 2 105.60816553716384 21.063366422337783 0.7838973279922145
411 1 107.52831400147592 19.954768189583163 0.0
412 2 109.44846246578798 21.063366422337783 0.7838973279922145
413 1 111.36861093010005 19.954768189583163 0.0
414 2 113.28875939441214 21.063366422337783 0.7838973279922145
415 1 115.2089078587242 19.954768189583163 0.0
416 2 117.12905632303627 21.063366422337783 0.7838973279922145
417 1 119.04920478734833 19.954768189583163 0.0
418 2 120.96935325166041 21.063366422337783 0.7838973279922145
419 1 122.88950171597247 19.954768189583163 0.0
420 2 124.80965018028454 21.063366422337783 0.7838973279922145
421 1 13.44103925018449 23.280562887847022 0.0
422 2 15.361187714496559 24.389161120601642 0.7838973279922145
423 1 17.28133617880863 23.280562887847022 0.0
424 2 19.2014846431207 24.389161120601642 0.7838973279922145
425 1 21.121633107432768 23.280562887847022 0.0
426 2 23.04178157174484 24.389161120601642 0.7838973279922145
427 1 24.961930036056906 23.280562887847022 0.0
428 2 26.88207850036898 24.389161120601642 0.7838973279922145
429 1 28.80222696468105 23.280562887847022 0.0
430 2 30.722375428993118 24.389161120601642 0.7838973279922145
431 1 32.64252389330519 23.280562887847022 0.0
432 2 34.56267235761726 24.389161120601642 0.7838973279922145
433 1 36.48282082192933 23.280562887847022 0.0
434 2 38.4029692862414 24.389161120601642 0.7838973279922145
435 1 40.32311775055347 23.280562887847022 0.0
436 2 42.243266214865535 24.389161120601642 0.7838973279922145
437 1 44.163414679177606 23.280562887847022 0.0
438 2 46.08356314348968 24.389161120601642 0.7838973279922145
439 1 48.00371160780175 23.280562887847022 0.0
440 2 49.92386007211381 24.389161120601642 0.7838973279922145
441 1 51.84400853642589 23.280562887847022 0.0
442 2 53.76415700073796 24.389161120601642 0.7838973279922145
443 1 55.68430546505002 23.280562887847022 0.0
444 2 57.6044539293621 24.389161120601642 0.7838973279922145
445 1 59.524602393674165 23.280562887847022 0.0
446 2 61.444750857986236 24.389161120601642 0.7838973279922145
447 1 63.364899322298314 23.280562887847022 0.0
448 2 65.28504778661038 24.389161120601642 0.7838973279922145
449 1 67.20519625092246 23.280562887847022 0.0
450 2 69.12534471523452 24.389161120601642 0.7838973279922145
451 1 71.04549317954658 23.280562887847022 0.0
452 2 72.96564164385866 24.389161120601642 0.7838973279922145
453 1 74.88579010817072 23.280562887847022 0.0
454 2 76.8059385724828 24.389161120601642 0.7838973279922145
455 1 78.72608703679487 23.280562887847022 0.0
456 2 80.64623550110694 24.389161120601642 0.7838973279922145
457 1 82.566383965419 23.280562887847022 0.0
458 2 84.48653242973107 24.389161120601642 0.7838973279922145
459 1 86.40668089404315 23.280562887847022 0.0
460 2 88.32682935835521 24.389161120601642 0.7838973279922145
461 1 90.24697782266729 23.280562887847022 0.0
462 2 92.16712628697935 24.389161120601642 0.7838973279922145
463 1 94.08727475129143 23.280562887847022 0.0
464 2 96.0074232156035 24.389161120601642 0.7838973279922145
465 1 97.92757167991556 23.280562887847022 0.0
466 2 99.84772014422762 24.389161120601642 0.7838973279922145
467 1 101.76786860853971 23.280562887847022 0.0
468 2 103.68801707285178 24.389161120601642 0.7838973279922145
469 1 105.60816553716384 23.280562887847022 0.0
470 2 107.52831400147592 24.389161120601642 0.7838973279922145
471 1 109.44846246578798 23.280562887847022 0.0
472 2 111.36861093010005 24.389161120601642 0.7838973279922145
473 1 113.28875939441214 23.280562887847022 0.0
474 2 115.2089078587242 24.389161120601642 0.7838973279922145
475 1 117.12905632303627 23.280562887847022 0.0
476 2 119.04920478734833 24.389161120601642 0.7838973279922145
477 1 120.96935325166041 23.280562887847022 0.0
478 2 122.88950171597247 24.389161120601642 0.7838973279922145
479 1 124.80965018028454 23.280562887847022 0.0
480 2 126.72979864459663 24.389161120601642 0.7838973279922145
481 1 15.361187714496559 26.60635758611088 0.0
482 2 17.28133617880863 27.714955818865505 0.7838973279922145
483 1 19.2014846431207 26.60635758611088 0.0
484 2 21.121633107432768 27.714955818865505 0.7838973279922145
485 1 23.04178157174484 26.60635758611088 0.0
486 2 24.961930036056906 27.714955818865505 0.7838973279922145
487 1 26.88207850036898 26.60635758611088 0.0
488 2 28.80222696468105 27.714955818865505 0.7838973279922145
489 1 30.722375428993118 26.60635758611088 0.0
490 2 32.64252389330519 27.714955818865505 0.7838973279922145
491 1 34.56267235761726 26.60635758611088 0.0
492 2 36.48282082192933 27.714955818865505 0.7838973279922145
493 1 38.4029692862414 26.60635758611088 0.0
494 2 40.32311775055347 27.714955818865505 0.7838973279922145
495 1 42.243266214865535 26.60635758611088 0.0
496 2 44.163414679177606 27.714955818865505 0.7838973279922145
497 1 46.08356314348968 26.60635758611088 0.0
498 2 48.00371160780175 27.714955818865505 0.7838973279922145
499 1 49.92386007211381 26.60635758611088 0.0
500 2 51.84400853642589 27.714955818865505 0.7838973279922145
501 1 53.76415700073796 26.60635758611088 0.0
502 2 55.68430546505002 27.714955818865505 0.7838973279922145
503 1 57.6044539293621 26.60635758611088 0.0
504 2 59.524602393674165 27.714955818865505 0.7838973279922145
505 1 61.444750857986236 26.60635758611088 0.0
506 2 63.364899322298314 27.714955818865505 0.7838973279922145
507 1 65.28504778661038 26.60635758611088 0.0
508 2 67.20519625092246 27.714955818865505 0.7838973279922145
509 1 69.12534471523452 26.60635758611088 0.0
510 2 71.04549317954658 27.714955818865505 0.7838973279922145
511 1 72.96564164385866 26.60635758611088 0.0
512 2 74.88579010817072 27.714955818865505 0.7838973279922145
513 1 76.8059385724828 26.60635758611088 0.0
514 2 78.72608703679487 27.714955818865505 0.7838973279922145
515 1 80.64623550110694 26.60635758611088 0.0
516 2 82.566383965419 27.714955818865505 0.7838973279922145
517 1 84.48653242973107 26.60635758611088 0.0
518 2 86.40668089404315 27.714955818865505 0.7838973279922145
519 1 88.32682935835521 26.60635758611088 0.0
520 2 90.24697782266729 27.714955818865505 0.7838973279922145
521 1 92.16712628697935 26.60635758611088 0.0
522 2 94.08727475129143 27.714955818865505 0.7838973279922145
523 1 96.0074232156035 26.60635758611088 0.0
524 2 97.92757167991556 27.714955818865505 0.7838973279922145
525 1 99.84772014422762 26.60635758611088 0.0
526 2 101.76786860853971 27.714955818865505 0.7838973279922145
527 1 103.68801707285178 26.60635758611088 0.0
528 2 105.60816553716384 27.714955818865505 0.7838973279922145
529 1 107.52831400147592 26.60635758611088 0.0
530 2 109.44846246578798 27.714955818865505 0.7838973279922145
531 1 111.36861093010005 26.60635758611088 0.0
532 2 113.28875939441214 27.714955818865505 0.7838973279922145
533 1 115.2089078587242 26.60635758611088 0.0
534 2 117.12905632303627 27.714955818865505 0.7838973279922145
535 1 119.04920478734833 26.60635758611088 0.0
536 2 120.96935325166041 27.714955818865505 0.7838973279922145
537 1 122.88950171597247 26.60635758611088 0.0
538 2 124.80965018028454 27.714955818865505 0.7838973279922145
539 1 126.72979864459663 26.60635758611088 0.0
540 2 128.6499471089087 27.714955818865505 0.7838973279922145
541 1 17.28133617880863 29.932152284374745 0.0
542 2 19.2014846431207 31.040750517129364 0.7838973279922145
543 1 21.121633107432768 29.932152284374745 0.0
544 2 23.04178157174484 31.040750517129364 0.7838973279922145
545 1 24.961930036056906 29.932152284374745 0.0
546 2 26.88207850036898 31.040750517129364 0.7838973279922145
547 1 28.80222696468105 29.932152284374745 0.0
548 2 30.722375428993118 31.040750517129364 0.7838973279922145
549 1 32.64252389330519 29.932152284374745 0.0
550 2 34.56267235761726 31.040750517129364 0.7838973279922145
551 1 36.48282082192933 29.932152284374745 0.0
552 2 38.4029692862414 31.040750517129364 0.7838973279922145
553 1 40.32311775055347 29.932152284374745 0.0
554 2 42.243266214865535 31.040750517129364 0.7838973279922145
555 1 44.163414679177606 29.932152284374745 0.0
556 2 46.08356314348968 31.040750517129364 0.7838973279922145
557 1 48.00371160780175 29.932152284374745 0.0
558 2 49.92386007211381 31.040750517129364 0.7838973279922145
559 1 51.84400853642589 29.932152284374745 0.0