LAMMPS (16 Mar 2018)
atom_style	atomic
units		metal
dimension	3
boundary	p p p
processors	* * *

# ---------------------------------------------------------
box		tilt large
read_data       data.relax
  triclinic box = (-1.92015 -1.6629 -1.17585) to (113.289 98.1109 92.8918) with tilt (57.6045 57.6045 33.2579)
WARNING: Triclinic box skew is large (../domain.cpp:197)
  3 by 6 by 6 MPI processor grid
  reading atoms ...
  54000 atoms
pair_style	tersoff
pair_coeff	* * SiCGe.tersoff Si(D) Si(D)

#--------------- Simulation control parameters ----------------------------------------------------------
variable	Tlo equal 10
variable	T equal 50    	          				# Kelvin
variable	Thi equal 750
variable	V equal vol             				# A^3
variable	dt equal 0.0005          				# 0.5fs; in picoseconds = 1e-12 s
variable	NRUNNVT equal 1000000
variable        NRUNNPT equal 100000
variable	NRUNanneal equal 500000
variable	NRUNNVE equal 100000
variable	thermocalc equal 10000
variable	snapprint equal 1000
variable        Lx equal xhi-xlo
variable        Ly equal yhi-ylo
print           "Lx = ${Lx} A"
Lx = 115.208907858724 A
print           "Ly = ${Ly} A"
Ly = 99.7738409479158 A
timestep  	${dt}
timestep  	0.0005

# -------------- Print structure -----------------------
dump		snapxyz all custom 100 sisnap.lammpstrj id type x y z

# -------------- Relax Structure at 0K --------------------------
thermo_style    custom step temp pe etotal press pxx pyy pzz lx ly lz fmax fnorm
thermo		1000
#fix		filmrelax all box/relax x 0 y 0 z 0 couple none		#Try different methods to relax different systems
fix             filmrelax all box/relax x 0 y 0 z 0 xy 0 xz 0 yz 0 couple none         #Try different methods to relax different systems
minimize	0.0 1e-11 100000 10000000
WARNING: Using 'neigh_modify every 1 delay 0 check yes' setting during minimization (../min.cpp:168)
Neighbor list info ...
  update every 1 steps, delay 0 steps, check yes
  max neighbors/atom: 2000, page size: 100000
  master list distance cutoff = 5
  ghost atom cutoff = 5
  binsize = 2.5, bins = 93 54 38
  1 neighbor lists, perpetual/occasional/extra = 1 0 0
  (1) pair tersoff, perpetual
      attributes: full, newton on
      pair build: full/bin/atomonly
      stencil: full/bin/3d
      bin: standard
Per MPI rank memory allocation (min/avg/max) = 5.157 | 5.158 | 5.16 Mbytes
Step Temp PotEng TotEng Press Pxx Pyy Pzz Lx Ly Lz Fmax Fnorm 
       0            0   -249998.03   -249998.03    543.43583    543.43583    543.43583    543.43583    115.20891    99.773841    94.067679 2.0525803e-12 9.426706e-11 
    1000            0   -249998.13   -249998.13 5.871436e-09 2.1221974e-05 -2.1204605e-05 2.4580408e-10    115.23023    99.792308     94.08509 2.9653706e-08 7.1791609e-06 
    2000            0   -249998.13   -249998.13 -8.7898129e-09 1.4250784e-05 -1.4269658e-05 -7.4946675e-09    115.23023    99.792308     94.08509 2.7653997e-08 6.696503e-06 
    3000            0   -249998.13   -249998.13 -1.3247784e-09 1.2026638e-06 -1.2055458e-06 -1.0923129e-09    115.23023    99.792308     94.08509 2.5618937e-08 6.2126606e-06 
    4000            0   -249998.13   -249998.13 1.9998716e-09 -8.7242523e-06 8.7275077e-06 2.7442511e-09    115.23023    99.792308     94.08509 2.3753763e-08 5.7656069e-06 
    5000            0   -249998.13   -249998.13 1.7634018e-09 -1.3487078e-05 1.3490802e-05 1.5670852e-09    115.23023    99.792308     94.08509 2.1912161e-08 5.3215798e-06 
    6000            0   -249998.13   -249998.13 -7.9831078e-10 -1.5106092e-05 1.5113995e-05 -1.0297508e-08    115.23023    99.792308     94.08509 2.0198154e-08 4.9100783e-06 
    7000            0   -249998.13   -249998.13 3.7738092e-09 -7.707803e-06 7.7142346e-06 4.8898177e-09    115.23023    99.792308     94.08509 1.8605139e-08 4.5194276e-06 
    8000            0   -249998.13   -249998.13 -6.8979956e-10 3.3255549e-07 -3.3354873e-07 -1.0761505e-09    115.23023    99.792308     94.08509 1.7255625e-08 4.1838197e-06 
    9000            0   -249998.13   -249998.13 1.8651498e-09 7.5346163e-06 -7.5326278e-06 3.6069224e-09    115.23023    99.792308     94.08509 1.5981601e-08 3.8712054e-06 
   10000            0   -249998.13   -249998.13 -3.4373449e-09 9.356753e-06 -9.3632998e-06 -3.7651798e-09    115.23023    99.792308     94.08509 1.4901785e-08 3.6000351e-06 
   11000            0   -249998.13   -249998.13 1.4787226e-09 1.0257738e-05 -1.0259382e-05 6.0797788e-09    115.23023    99.792308     94.08509 1.3879448e-08 3.3510811e-06 
   12000            0   -249998.13   -249998.13 7.5075393e-10 3.6519223e-06 -3.6523308e-06 2.660745e-09    115.23023    99.792308     94.08509 1.2940536e-08 3.1247909e-06 
   13000            0   -249998.13   -249998.13 -5.8863702e-10 -1.1313603e-06 1.1313359e-06 -1.7415051e-09    115.23023    99.792308     94.08509 1.2077116e-08 2.9046467e-06 
   14000            0   -249998.13   -249998.13 -1.7143166e-09 -6.0222087e-06 6.0157378e-06 1.3280155e-09    115.23023    99.792308     94.08509 1.1232483e-08 2.695409e-06 
   15000            0   -249998.13   -249998.13 -4.0217294e-10 -6.6455569e-06 6.6448279e-06 -4.7746602e-10    115.23023    99.792308     94.08509 1.0352404e-08 2.4861118e-06 
   16000            0   -249998.13   -249998.13 -2.5829208e-09 -6.6639375e-06 6.6580057e-06 -1.8169299e-09    115.23023    99.792308     94.08509 9.4711302e-09 2.2855713e-06 
   17000            0   -249998.13   -249998.13 -1.3045951e-09 -1.5110518e-06 1.5093367e-06 -2.198768e-09    115.23023    99.792308     94.08509 8.6961972e-09 2.103868e-06 
   18000            0   -249998.13   -249998.13 1.0499824e-09 1.6270987e-06 -1.6247273e-06 7.7849184e-10    115.23023    99.792308     94.08509 8.0567677e-09 1.9435694e-06 
   19000            0   -249998.13   -249998.13 2.994047e-10 4.4678359e-06 -4.4707965e-06 3.8587874e-09    115.23023    99.792308     94.08509 7.5177016e-09 1.8050544e-06 
   20000            0   -249998.13   -249998.13 -1.8632433e-10 4.8372452e-06 -4.8320194e-06 -5.7848139e-09    115.23023    99.792308     94.08509 7.0823388e-09 1.6828076e-06 
   21000            0   -249998.13   -249998.13 -1.5968711e-09 3.8246559e-06 -3.8286336e-06 -8.1283707e-10    115.23023    99.792308     94.08509 6.6478845e-09 1.5732472e-06 
   22000            0   -249998.13   -249998.13 6.941131e-10 4.8420449e-07 -4.852213e-07 3.0991518e-09    115.23023    99.792308     94.08509 6.1432579e-09 1.4622214e-06 
   23000            0   -249998.13   -249998.13 -6.2814356e-11 -1.8163971e-06 1.8165905e-06 -3.8183813e-10    115.23023    99.792308     94.08509 5.6722478e-09 1.3550333e-06 
   24000            0   -249998.13   -249998.13 -8.62672e-10 -3.1525647e-06 3.1553055e-06 -5.3288979e-09    115.23023    99.792308     94.08509 5.2397917e-09 1.2470974e-06 
   25000            0   -249998.13   -249998.13 1.5855152e-09 -3.4495841e-06 3.4518288e-06 2.5119157e-09    115.23023    99.792308     94.08509 4.8221963e-09 1.1460681e-06 
   26000            0   -249998.13   -249998.13 -2.0994071e-09 -2.1715931e-06 2.1741311e-06 -8.8361518e-09    115.23023    99.792308     94.08509 4.421901e-09 1.0487476e-06 
   27000            0   -249998.13   -249998.13 -4.9865823e-10 -1.0893391e-07 1.0956532e-07 -2.1273838e-09    115.23023    99.792308     94.08509 4.1109829e-09 9.6713857e-07 
   28000            0   -249998.13   -249998.13 -1.6831562e-10 1.5652475e-06 -1.5625732e-06 -3.1792906e-09    115.23023    99.792308     94.08509 3.8107292e-09 8.9426563e-07 
   29000            0   -249998.13   -249998.13 4.1601011e-10 2.133119e-06 -2.1305288e-06 -1.3421576e-09    115.23023    99.792308     94.08509 3.5890995e-09 8.3355571e-07 
   30000            0   -249998.13   -249998.13 1.6673471e-09 2.4039105e-06 -2.4019948e-06 3.0863565e-09    115.23023    99.792308     94.08509 3.3785626e-09 7.7806359e-07 
   31000            0   -249998.13   -249998.13 6.3039444e-10 1.3781045e-06 -1.3776733e-06 1.4600089e-09    115.23023    99.792308     94.08509 3.1292219e-09 7.3139295e-07 
   32000            0   -249998.13   -249998.13 2.8606212e-10 4.1342456e-08 -3.9052545e-08 -1.4317246e-09    115.23023    99.792308     94.08509 2.8647051e-09 6.8599598e-07 
   33000            0   -249998.13   -249998.13 -5.523987e-10 -8.6803847e-07 8.6930062e-07 -2.9193444e-09    115.23023    99.792308     94.08509 2.6810742e-09 6.4613848e-07 
   34000            0   -249998.13   -249998.13 3.134357e-10 -1.502943e-06 1.5031694e-06  7.13842e-10    115.23023    99.792308     94.08509 2.6380715e-09 6.0908544e-07 
   35000            0   -249998.13   -249998.13 1.845253e-09 -1.5561923e-06 1.552302e-06 9.4260816e-09    115.23023    99.792308     94.08509 2.618829e-09 5.7624679e-07 
   36000            0   -249998.13   -249998.13 -6.8990936e-10 -1.5915204e-06 1.5900426e-06 -5.9195011e-10    115.23023    99.792308     94.08509 2.5965362e-09 5.4689878e-07 
   37000            0   -249998.13   -249998.13 -2.3403907e-10 -2.9250928e-07 2.930281e-07 -1.2209392e-09    115.23023    99.792308     94.08509 2.5974786e-09 5.2210393e-07 
   38000            0   -249998.13   -249998.13 -4.5946523e-10 6.3245336e-07 -6.3327617e-07 -5.5558457e-10    115.23023    99.792308     94.08509 2.583512e-09 5.0171185e-07 
   39000            0   -249998.13   -249998.13 -1.179613e-09 1.2235677e-06 -1.2291134e-06 2.0068388e-09    115.23023    99.792308     94.08509 2.5788935e-09 4.8786925e-07 
   40000            0   -249998.13   -249998.13 -2.3433096e-09 1.4894139e-06 -1.4937629e-06 -2.6809481e-09    115.23023    99.792308     94.08509 2.5649081e-09 4.786961e-07 
   41000            0   -249998.13   -249998.13 7.7941929e-10 7.3228211e-07 -7.3058765e-07 6.4380467e-10    115.23023    99.792308     94.08509 2.5535945e-09 4.736777e-07 
   42000            0   -249998.13   -249998.13 -1.7447827e-10 -7.0706225e-08 7.1377465e-08 -1.1946752e-09    115.23023    99.792308     94.08509 2.5459509e-09 4.6892943e-07 
   43000            0   -249998.13   -249998.13 -3.945845e-10 -9.1843436e-07 9.1680344e-07 4.471614e-10    115.23023    99.792308     94.08509 2.523346e-09 4.6538272e-07 
   44000            0   -249998.13   -249998.13 -7.3375048e-10 -1.184261e-06 1.1827958e-06 -7.3606538e-10    115.23023    99.792308     94.08509 2.5093699e-09 4.6041639e-07 
   45000            0   -249998.13   -249998.13 3.165038e-10 -1.3570918e-06 1.3549745e-06 3.0668268e-09    115.23023    99.792308     94.08509 2.4844374e-09  4.55611e-07 
   46000            0   -249998.13   -249998.13 -1.4595009e-09 -3.8206759e-07 3.7833761e-07 -6.4851872e-10    115.23023    99.792308     94.08509 2.4775897e-09 4.5065556e-07 
   47000            0   -249998.13   -249998.13 -2.947204e-11 5.135337e-07 -5.1560538e-07 1.9832686e-09    115.23023    99.792308     94.08509 2.4611074e-09 4.4743191e-07 
   48000            0   -249998.13   -249998.13 -5.2006083e-10 1.1404045e-06 -1.137289e-06 -4.6756651e-09    115.23023    99.792308     94.08509 2.4664473e-09 4.4699009e-07 
   49000            0   -249998.13   -249998.13 -2.0345973e-09 1.3843426e-06 -1.3828089e-06 -7.6374359e-09    115.23023    99.792308     94.08509 2.4671097e-09 4.4741202e-07 
   50000            0   -249998.13   -249998.13 -1.8674972e-10 6.7586229e-07 -6.7884354e-07 2.4210019e-09    115.23023    99.792308     94.08509 2.4691994e-09 4.491444e-07 
   51000            0   -249998.13   -249998.13 1.8374044e-10 -1.1812299e-07 1.1856512e-07 1.0909661e-10    115.23023    99.792308     94.08509 2.4657438e-09 4.490697e-07 
   52000            0   -249998.13   -249998.13 2.7530664e-10 -1.0266082e-06 1.0267863e-06 6.4784529e-10    115.23023    99.792308     94.08509 2.452784e-09 4.4853211e-07 
   53000            0   -249998.13   -249998.13 -2.0192182e-09 -1.2841008e-06 1.2787712e-06 -7.2798415e-10    115.23023    99.792308     94.08509 2.4327365e-09 4.4631448e-07 
   54000            0   -249998.13   -249998.13 -3.6533159e-10 -8.3884345e-07 8.376424e-07 1.0505599e-10    115.23023    99.792308     94.08509 2.4206638e-09 4.4267029e-07 
   55000            0   -249998.13   -249998.13 -7.9356224e-10 3.8517072e-08 -4.016102e-08 -7.3673882e-10    115.23023    99.792308     94.08509 2.4261021e-09 4.4111362e-07 
   56000            0   -249998.13   -249998.13 -2.8202449e-10 9.3089417e-07 -9.3061426e-07 -1.1259847e-09    115.23023    99.792308     94.08509 2.4203126e-09 4.3976896e-07 
   57000            0   -249998.13   -249998.13 -1.1074228e-09 1.1641212e-06 -1.1668071e-06 -6.3639688e-10    115.23023    99.792308     94.08509 2.4414834e-09 4.4078427e-07 
   58000            0   -249998.13   -249998.13 -1.2641287e-09 1.3424059e-06 -1.3484785e-06 2.2802538e-09    115.23023    99.792308     94.08509 2.4490505e-09 4.4240933e-07 
   59000            0   -249998.13   -249998.13 -4.5579889e-10 3.1977732e-07 -3.1863348e-07 -2.5112423e-09    115.23023    99.792308     94.08509 2.4446356e-09 4.443757e-07 
   60000            0   -249998.13   -249998.13 -4.6062669e-10 -4.8706179e-07 4.8839723e-07 -2.7173136e-09    115.23023    99.792308     94.08509 2.4361147e-09 4.4544476e-07 
   61000            0   -249998.13   -249998.13 2.5901229e-10 -1.1089469e-06 1.1128581e-06 -3.1341704e-09    115.23023    99.792308     94.08509 2.4278139e-09 4.4409385e-07 
   62000            0   -249998.13   -249998.13 -1.0198369e-09 -1.3450879e-06 1.3448581e-06 -2.8297774e-09    115.23023    99.792308     94.08509 2.4164611e-09 4.4230361e-07 
   63000            0   -249998.13   -249998.13 6.3987723e-10 -5.8405306e-07 5.8541644e-07 5.5625801e-10    115.23023    99.792308     94.08509 2.4057783e-09 4.3925378e-07 
   64000            0   -249998.13   -249998.13 7.9322345e-10 2.1105858e-07 -2.0945067e-07 7.7175748e-10    115.23023    99.792308     94.08509 2.4116382e-09 4.3810427e-07 
   65000            0   -249998.13   -249998.13 2.7822545e-10 9.883711e-07 -9.9194407e-07 4.4076376e-09    115.23023    99.792308     94.08509 2.4171773e-09 4.3752111e-07 
   66000            0   -249998.13   -249998.13 -1.8538226e-09 1.1942062e-06 -1.1969366e-06 -2.8311243e-09    115.23023    99.792308     94.08509 2.4281995e-09 4.3913552e-07 
   67000            0   -249998.13   -249998.13 -1.4995834e-10 1.2122505e-06 -1.2122559e-06 -4.4446766e-10    115.23023    99.792308     94.08509 2.4359519e-09 4.4156343e-07 
   68000            0   -249998.13   -249998.13 5.4718905e-10 2.4852584e-07 -2.4536635e-07 -1.5179244e-09    115.23023    99.792308     94.08509 2.4350174e-09 4.430632e-07 
   69000            0   -249998.13   -249998.13 -1.3710075e-09 -5.2877881e-07 5.2511026e-07 -4.4446766e-10    115.23023    99.792308     94.08509 2.4441849e-09 4.4413276e-07 
   70000            0   -249998.13   -249998.13 -1.6566936e-10 -1.1019121e-06 1.1042274e-06 -2.8122681e-09    115.23023    99.792308     94.08509 2.4369996e-09 4.4294939e-07 
   71000            0   -249998.13   -249998.13 1.4582431e-09 -1.3412424e-06 1.3439126e-06 1.7044661e-09    115.23023    99.792308     94.08509 2.4225089e-09 4.4134212e-07 
   72000            0   -249998.13   -249998.13 9.3064624e-10 -5.5084304e-07 5.5214736e-07 1.4876198e-09    115.23023    99.792308     94.08509 2.4081764e-09 4.3801749e-07 
   73000            0   -249998.13   -249998.13 2.5247021e-10 2.2924813e-07 -2.3113126e-07 2.640542e-09    115.23023    99.792308     94.08509 2.4132313e-09 4.3703238e-07 
   74000            0   -249998.13   -249998.13 4.1706215e-11 1.1000789e-06 -1.0998999e-06 -5.3874868e-11    115.23023    99.792308     94.08509 2.4217712e-09 4.3707966e-07 
   75000            0   -249998.13   -249998.13 -1.74263e-09 1.3083512e-06 -1.3117318e-06 -1.8472345e-09    115.23023    99.792308     94.08509 2.4394577e-09 4.3867403e-07 
   76000            0   -249998.13   -249998.13 6.1771826e-10 9.8345729e-07 -9.816836e-07 7.946543e-11    115.23023    99.792308     94.08509 2.4493007e-09 4.4123118e-07 
   77000            0   -249998.13   -249998.13 1.6832714e-10 5.6754384e-08 -5.6497227e-08 2.4782439e-10    115.23023    99.792308     94.08509 2.4413879e-09 4.4226123e-07 
   78000            0   -249998.13   -249998.13 -2.7491256e-10 -7.3918721e-07 7.3945546e-07 -1.0929864e-09    115.23023    99.792308     94.08509 2.4383283e-09 4.4308856e-07 
   79000            0   -249998.13   -249998.13 4.1407575e-10 -1.1176889e-06 1.1189487e-06 -1.7509332e-11    115.23023    99.792308     94.08509 2.4366717e-09 4.4161419e-07 
   80000            0   -249998.13   -249998.13 -6.8602195e-10 -1.3401993e-06 1.3399515e-06 -1.8101956e-09    115.23023    99.792308     94.08509 2.425696e-09 4.3958241e-07 
   81000            0   -249998.13   -249998.13 6.736305e-10 -4.5333555e-07 4.5511603e-07 2.404166e-10    115.23023    99.792308     94.08509 2.4163991e-09 4.3690884e-07 
   82000            0   -249998.13   -249998.13 -8.2151634e-10 3.5174385e-07 -3.543148e-07 1.0640286e-10    115.23023    99.792308     94.08509 2.4003133e-09 4.3562311e-07 
   83000            0   -249998.13   -249998.13 -2.3460398e-10  1.11106e-06 -1.1094654e-06 -2.2984365e-09    115.23023    99.792308     94.08509 2.4082902e-09 4.3606328e-07 
   84000            0   -249998.13   -249998.13 2.7584875e-09 1.2983428e-06 -1.2949565e-06 4.8891443e-09    115.23023    99.792308     94.08509 2.4185756e-09 4.373778e-07 
   85000            0   -249998.13   -249998.13 2.6067014e-11 8.9792914e-07 -8.9350121e-07 -4.3497221e-09    115.23023    99.792308     94.08509 2.4332259e-09 4.4029417e-07 
   86000            0   -249998.13   -249998.13 -5.7085713e-10 1.5163057e-08 -1.6753737e-08 -1.2189189e-10    115.23023    99.792308     94.08509 2.430322e-09 4.4109771e-07 
   87000            0   -249998.13   -249998.13 8.0257469e-10 -8.5754898e-07 8.5677202e-07 3.1846781e-09    115.23023    99.792308     94.08509 2.4404976e-09 4.4184302e-07 
   88000            0   -249998.13   -249998.13 -1.12875e-09 -1.1513896e-06 1.1474067e-06 5.9666416e-10    115.23023    99.792308     94.08509 2.4251104e-09 4.4010914e-07 
   89000            0   -249998.13   -249998.13 8.4216436e-11 -1.2948083e-06 1.300313e-06 -5.2521262e-09    115.23023    99.792308     94.08509 2.4131362e-09 4.3809164e-07 
   90000            0   -249998.13   -249998.13 -8.7490082e-10 -2.8078267e-07 2.7898966e-07 -8.3169327e-10    115.23023    99.792308     94.08509 2.4059647e-09 4.3566466e-07 
   91000            0   -249998.13   -249998.13 5.6429009e-10 3.7559388e-07 -3.7336361e-07 -5.3740181e-10    115.23023    99.792308     94.08509 2.4043334e-09 4.3477498e-07 
   92000            0   -249998.13   -249998.13 -3.8392544e-10 1.0924023e-06 -1.0902899e-06 -3.2641436e-09    115.23023    99.792308     94.08509 2.4142459e-09 4.3514983e-07 
   93000            0   -249998.13   -249998.13 7.237116e-10 1.2700515e-06 -1.2682871e-06 4.0675525e-10    115.23023    99.792308     94.08509 2.4211031e-09 4.3663949e-07 
   94000            0   -249998.13   -249998.13 -5.5251222e-10 9.6966727e-07 -9.698217e-07 -1.5031088e-09    115.23023    99.792308     94.08509 2.4402753e-09 4.3941211e-07 
   95000            0   -249998.13   -249998.13 3.3719933e-10 1.3075528e-08 -1.1896918e-08 -1.6701209e-10    115.23023    99.792308     94.08509 2.4335883e-09 4.4044617e-07 
   96000            0   -249998.13   -249998.13 -7.1025312e-10 -8.6379125e-07 8.619467e-07 -2.8621024e-10    115.23023    99.792308     94.08509 2.4369343e-09 4.4129373e-07 
   97000            0   -249998.13   -249998.13 -1.3215099e-09 -1.1588444e-06 1.151015e-06 3.8648483e-09    115.23023    99.792308     94.08509 2.4241725e-09 4.3956697e-07 
   98000            0   -249998.13   -249998.13 1.3010578e-09 -1.2843621e-06 1.2828266e-06 5.4386679e-09    115.23023    99.792308     94.08509 2.4138709e-09 4.3752459e-07 
   99000            0   -249998.13   -249998.13 -7.9336158e-10 -3.2251263e-07 3.2045579e-07 -3.2324921e-10    115.23023    99.792308     94.08509 2.4075404e-09 4.3521704e-07 
  100000            0   -249998.13   -249998.13 -8.8639038e-11 4.6644465e-07 -4.6322824e-07 -3.4823368e-09    115.23023    99.792308     94.08509 2.4049395e-09 4.3401934e-07 
Loop time of 377.361 on 108 procs for 100000 steps with 54000 atoms

100.0% CPU use with 108 MPI tasks x no OpenMP threads

Minimization stats:
  Stopping criterion = max iterations
  Energy initial, next-to-last, final = 
        -249998.028894     -249998.130686     -249998.130686
  Force two-norm initial, final = 635.246 1.21677e-06
  Force max component initial, final = 366.759 8.86969e-07
  Final line search alpha, max atom move = 1 8.86969e-07
  Iterations, force evaluations = 100000 199999

MPI task timing breakdown:
Section |  min time  |  avg time  |  max time  |%varavg| %total
---------------------------------------------------------------
Pair    | 301.22     | 303.24     | 308.42     |   8.3 | 80.36
Neigh   | 0          | 0          | 0          |   0.0 |  0.00
Comm    | 23.692     | 28.937     | 34.052     |  40.5 |  7.67
Output  | 1.3288     | 1.8307     | 3.5916     |  27.2 |  0.49
Modify  | 0          | 0          | 0          |   0.0 |  0.00
Other   |            | 43.35      |            |       | 11.49

Nlocal:    500 ave 500 max 500 min
Histogram: 108 0 0 0 0 0 0 0 0 0
Nghost:    1164 ave 1164 max 1164 min
Histogram: 108 0 0 0 0 0 0 0 0 0
Neighs:    0 ave 0 max 0 min
Histogram: 108 0 0 0 0 0 0 0 0 0
FullNghs:  14000 ave 14000 max 14000 min
Histogram: 108 0 0 0 0 0 0 0 0 0

Total # of neighbors = 1512000
Ave neighs/atom = 28
Neighbor list builds = 0
Dangerous builds = 0
min_style	sd
min_modify	dmax 0.2
write_restart	restart.min.*

# -------------- NVT Thermalization -----------------------------
thermo_style    custom step temp pe etotal press pxx pyy pzz lx ly lz
dump_modify     snapxyz every ${snapprint}
dump_modify     snapxyz every 1000
restart		500000 restart
thermo          ${thermocalc}
thermo          10000
velocity	all create ${Tlo} ${SEED} mom yes rot yes dist gaussian
velocity	all create 10 ${SEED} mom yes rot yes dist gaussian
velocity	all create 10 14225 mom yes rot yes dist gaussian
fix		NVT all nvt temp ${Tlo} ${Thi} 0.05 tchain 10
fix		NVT all nvt temp 10 ${Thi} 0.05 tchain 10
fix		NVT all nvt temp 10 750 0.05 tchain 10
run		${NRUNNVT}
run		1000000
Per MPI rank memory allocation (min/avg/max) = 4.032 | 4.033 | 4.035 Mbytes
Step Temp PotEng TotEng Press Pxx Pyy Pzz Lx Ly Lz 
  100000           10   -249998.13   -249928.33     68.91046    68.343519    68.751373    69.636488    115.23023    99.792308     94.08509 
  110000    17.417451    -249878.7   -249757.13    311.44966    276.71363    269.84699    387.78837    115.23023    99.792308     94.08509 
  120000    24.862809   -249826.73   -249653.19    457.25742    487.09886    518.06757    366.60582    115.23023    99.792308     94.08509 
  130000    32.450809   -249775.91    -249549.4    582.97266    621.79017     567.8911    559.23673    115.23023    99.792308     94.08509 
  140000    39.935092   -249723.78   -249445.03    727.25035    674.34374    643.33702    864.07029    115.23023    99.792308     94.08509 
  150000    47.272771   -249672.25   -249342.29     858.5937    854.01552    912.26294    809.50263    115.23023    99.792308     94.08509 
  160000    54.119421   -249616.51   -249238.76    1003.9223       1007.2    1088.9245    915.64222    115.23023    99.792308     94.08509 
  170000    61.839049   -249568.34   -249136.71    1130.6385    1071.5247    1126.6601    1193.7307    115.23023    99.792308     94.08509 
  180000    68.432822   -249509.56   -249031.91    1279.8928    1255.7351    1181.0258    1402.9174    115.23023    99.792308     94.08509 
  190000    76.492045   -249462.65   -248928.74    1409.9303    1427.2855    1441.2349    1361.2706    115.23023    99.792308     94.08509 
  200000    84.090183    -249412.2   -248825.26    1537.9226    1479.3522    1658.8363    1475.5794    115.23023    99.792308     94.08509 
  210000    92.220272   -249364.73   -248721.04    1675.6345    1652.0369    1667.9449    1706.9215    115.23023    99.792308     94.08509 
  220000    99.110326   -249309.27   -248617.49    1828.9931    1838.8281    1721.1433    1927.0079    115.23023    99.792308     94.08509 
  230000    106.75661   -249257.98   -248512.83    1973.1475    2054.9243    1894.6252    1969.8929    115.23023    99.792308     94.08509 
  240000    113.76532   -249198.09   -248404.01    2084.1646    2120.4498    2096.2254    2035.8187    115.23023    99.792308     94.08509 
  250000    121.84579    -249153.3   -248302.83    2226.0277    2174.9134    2222.2056    2280.9641    115.23023    99.792308     94.08509 
  260000    129.37255   -249099.88   -248196.87    2359.9594    2251.0256    2386.6169    2442.2356    115.23023    99.792308     94.08509 
  270000    136.01732   -249047.58   -248098.19    2491.1429     2282.752    2574.4664    2616.2102    115.23023    99.792308     94.08509 
  280000    141.78578   -248988.23   -247998.57     2622.697    2550.3017    2708.6809    2609.1083    115.23023    99.792308     94.08509 
  290000    150.71835   -248941.74   -247889.74     2777.404    2859.4211    2779.3751    2693.4158    115.23023    99.792308     94.08509 
  300000    156.41886   -248882.97   -247791.18    2891.0681     3099.003    2741.9203    2832.2811    115.23023    99.792308     94.08509 
  310000     165.5011   -248830.35   -247675.17    3058.7446    3162.3926    2856.0094    3157.8316    115.23023    99.792308     94.08509 
  320000    172.14317    -248789.2   -247587.66    3168.5906    3249.7065    3047.3999    3208.6654    115.23023    99.792308     94.08509 
  330000    180.07497   -248733.45   -247476.54    3305.4773    3334.9681    3181.7415    3399.7223    115.23023    99.792308     94.08509 
  340000    189.49712   -248683.84   -247361.16    3476.7863    3470.6414    3451.3638    3508.3536    115.23023    99.792308     94.08509 
  350000     195.0593   -248630.24   -247268.74     3577.362    3459.3558    3600.1643    3672.5658    115.23023    99.792308     94.08509 
  360000    203.17078    -248582.7   -247164.59    3742.7738     3682.998    3751.0766    3794.2469    115.23023    99.792308     94.08509 
  370000    209.52946   -248524.95   -247062.45    3864.1309    3937.8161    3782.3256    3872.2511    115.23023    99.792308     94.08509 
  380000    217.70927   -248468.53   -246948.93    4015.4506     4044.707    4020.3188    3981.3261    115.23023    99.792308     94.08509 
  390000    225.29746   -248414.34   -246841.78    4133.3639    4135.7025    4193.0433    4071.3459    115.23023    99.792308     94.08509 
  400000    233.29113   -248371.62   -246743.27    4287.6665    4177.2844    4248.0021    4437.7131    115.23023    99.792308     94.08509 
  410000    238.77242   -248311.48   -246644.87    4436.6127    4363.7037    4439.2288    4506.9057    115.23023    99.792308     94.08509 
  420000    246.43807   -248267.63   -246547.51    4550.5722    4440.2673    4403.2492    4808.2002    115.23023    99.792308     94.08509 
  430000    253.70234    -248210.9   -246440.08    4658.0265    4699.5693    4583.3846    4691.1257    115.23023    99.792308     94.08509 
  440000    260.82109    -248154.2   -246333.69    4802.4484    4835.2899    4728.0379    4844.0175    115.23023    99.792308     94.08509 
  450000     268.6498   -248115.84   -246240.69    4921.7254    5079.1493    4781.1863    4904.8406    115.23023    99.792308     94.08509 
  460000    276.65478   -248034.38   -246103.35    5108.6108    5142.9176    4922.2469    5260.6679    115.23023    99.792308     94.08509 
  470000    284.35132   -247997.23   -246012.48    5227.2494    5191.4692    5243.2373    5247.0418    115.23023    99.792308     94.08509 
  480000     292.1607   -247940.53   -245901.28    5367.5756    5272.2274    5405.4659    5425.0336    115.23023    99.792308     94.08509 
  490000    296.71233   -247886.86   -245815.83    5471.7763    5285.9884    5355.3672    5773.9733    115.23023    99.792308     94.08509 
  500000    305.57459    -247844.8   -245711.91    5598.4779    5312.7914    5538.4818    5944.1606    115.23023    99.792308     94.08509 
  510000     313.1488   -247790.96   -245605.21    5735.5075    5597.7177    5785.5713    5823.2335    115.23023    99.792308     94.08509 
  520000    321.51349   -247727.25   -245483.11    5901.2924     5945.306     5825.251    5933.3203    115.23023    99.792308     94.08509 
  530000    329.55131   -247683.43   -245383.19    6011.2098    6107.6777    5940.4809    5985.4707    115.23023    99.792308     94.08509 
  540000     335.0571   -247639.22   -245300.55    6111.1716     6425.759    5892.2242    6015.5318    115.23023    99.792308     94.08509 
  550000    342.76875   -247580.35   -245187.85    6264.4746    6367.8868    6115.0938    6310.4431    115.23023    99.792308     94.08509 
  560000    350.13732   -247514.74   -245070.81    6403.2021     6231.831    6498.2251    6479.5501    115.23023    99.792308     94.08509 
  570000    357.29345   -247475.37   -244981.49    6525.9614    6418.9702    6582.8618    6576.0523    115.23023    99.792308     94.08509 
  580000    365.60262   -247411.45   -244859.57    6697.8402    6531.1792    6744.3071    6818.0342    115.23023    99.792308     94.08509 
  590000    370.84787   -247362.35   -244773.86     6841.626    6630.3367    6926.8943    6967.6469    115.23023    99.792308     94.08509 
  600000    379.44437    -247300.1    -244651.6    6977.5406    7034.8985    6915.1819    6982.5415    115.23023    99.792308     94.08509 
  610000    388.42351   -247270.09   -244558.92    7049.1465    7074.8665    7129.9154    6942.6576    115.23023    99.792308     94.08509 
  620000    393.21289   -247227.17   -244482.57    7155.5538    6564.6576    7202.1974    7699.8063    115.23023    99.792308     94.08509 
  630000    402.10198    -247148.7   -244342.06     7389.213    7209.1914    7412.3264    7546.1211    115.23023    99.792308     94.08509 
  640000    405.74146   -247116.43   -244284.39    7463.8632    7848.5587    7493.5949    7049.4361    115.23023    99.792308     94.08509 
  650000     417.7071   -247046.43   -244130.86    7687.1867    7818.7643    7666.7033    7576.0927    115.23023    99.792308     94.08509 
  660000     423.7719   -246993.15   -244035.26    7816.1964    7561.0786    7950.5931    7936.9175    115.23023    99.792308     94.08509 
  670000    431.50744   -246930.14   -243918.25    7942.8713    8114.1394    7801.7859    7912.6887    115.23023    99.792308     94.08509 
  680000    440.85939   -246893.01   -243815.85    8051.6692    7820.4143    8205.0557    8129.5375    115.23023    99.792308     94.08509 
  690000    445.47873   -246839.68   -243730.27    8149.9973    8231.1797    8308.2373    7910.5749    115.23023    99.792308     94.08509 
  700000    452.15146   -246787.88    -243631.9     8306.002    8318.9675     8652.899    7946.1395    115.23023    99.792308     94.08509 
  710000    459.66838   -246704.41   -243495.96    8498.1437    8485.8168    8321.9434    8686.6708    115.23023    99.792308     94.08509 
  720000     471.3671   -246706.42   -243416.32    8588.2646    8420.1258    8707.2786    8637.3896    115.23023    99.792308     94.08509 
  730000    475.74793   -246615.64   -243294.96    8695.9289    8735.3919    8728.2104    8624.1843    115.23023    99.792308     94.08509 
  740000    487.56318   -246560.37   -243157.21    8900.1118     8873.913    9035.9376    8790.4848    115.23023    99.792308     94.08509 
  750000    489.58886   -246527.29      -243110    8959.1603     8871.818    8932.0046    9073.6582    115.23023    99.792308     94.08509 
  760000    499.53742   -246481.65   -242994.92    9065.2206    9053.5665    9244.6356    8897.4597    115.23023    99.792308     94.08509 
  770000    503.33584   -246391.87   -242878.63    9196.9983    9211.2467    8886.2505    9493.4977    115.23023    99.792308     94.08509 
  780000    514.80319   -246350.91   -242757.63    9342.6553    9404.3127    9404.1209    9219.5323    115.23023    99.792308     94.08509 
  790000    521.27071   -246299.76   -242661.34     9518.841    9483.0242    9649.5785    9423.9204    115.23023    99.792308     94.08509 
  800000    530.06052      -246225   -242525.22    9708.0821    9553.6123    9522.1834    10048.451    115.23023    99.792308     94.08509 
  810000    538.72368   -246209.44   -242449.19    9831.8581    10061.959    9827.3446    9606.2703    115.23023    99.792308     94.08509 
  820000     542.0741   -246162.06   -242378.42    9867.0866    9548.3177    9877.5887    10175.353    115.23023    99.792308     94.08509 
  830000    549.30591   -246092.78   -242258.67    10052.925    10171.846    10190.235    9796.6951    115.23023    99.792308     94.08509 
  840000    560.36062      -246042   -242130.72    10204.482    10224.983    10344.228    10044.236    115.23023    99.792308     94.08509 
  850000    564.42236   -245972.21   -242032.59    10336.883    10373.943    10135.414     10501.29    115.23023    99.792308     94.08509 
  860000    571.42126   -245929.43   -241940.95    10417.548    10490.711    10585.405    10176.526    115.23023    99.792308     94.08509 
  870000    581.79597   -245871.49    -241810.6    10639.169    10487.839    10608.463    10821.204    115.23023    99.792308     94.08509 
  880000    584.86478   -245834.01    -241751.7    10708.954    10582.388    10991.063    10553.412    115.23023    99.792308     94.08509 
  890000    596.02725   -245772.56   -241612.34    10803.841    10791.391    11104.659    10515.472    115.23023    99.792308     94.08509 
  900000    602.04544   -245719.36   -241517.14     10921.08    11335.862    10605.085    10822.292    115.23023    99.792308     94.08509 
  910000    607.14714   -245680.82   -241442.99    11021.016    10832.951    11219.031    11011.065    115.23023    99.792308     94.08509 
  920000    617.86653   -245614.46    -241301.8      11220.8    11230.236    11347.366      11084.8    115.23023    99.792308     94.08509 
  930000    621.02452   -245563.59   -241228.89    11336.206    11625.943    11120.439    11262.236    115.23023    99.792308     94.08509 
  940000    633.28273   -245498.32   -241078.06    11473.655    11147.879    11849.548    11423.537    115.23023    99.792308     94.08509 
  950000    641.56379   -245440.19   -240962.13    11669.526    12119.109    11623.112    11266.358    115.23023    99.792308     94.08509 
  960000    644.76173   -245400.81   -240900.42    11713.086    11647.457    11803.073    11688.728    115.23023    99.792308     94.08509 
  970000    654.56474   -245326.58   -240757.77     11888.31    11966.263    11653.197     12045.47    115.23023    99.792308     94.08509 
  980000    659.76481   -245311.34   -240706.24    11959.724    12071.547    12408.136    11399.491    115.23023    99.792308     94.08509 
  990000    671.07771   -245223.31   -240539.24    12230.243    12018.771    11950.309     12721.65    115.23023    99.792308     94.08509 
 1000000    679.88094   -245139.23   -240393.72    12353.086    12182.183    12530.625    12346.449    115.23023    99.792308     94.08509 
 1010000    689.21001   -245121.61   -240310.98     12461.16    12442.577    12365.499    12575.405    115.23023    99.792308     94.08509 
 1020000    690.02157   -245078.01   -240261.72    12548.032    12435.136    12270.165    12938.794    115.23023    99.792308     94.08509 
 1030000    700.41443   -245019.72   -240130.89    12697.349    12536.329    13130.589    12425.129    115.23023    99.792308     94.08509 
 1040000    706.03051   -244947.25   -240019.21    12805.197    12647.468    12936.168    12831.956    115.23023    99.792308     94.08509 
 1050000    709.03999   -244917.94    -239968.9    12846.807    12825.483    13108.327     12606.61    115.23023    99.792308     94.08509 
 1060000    716.64734   -244838.08   -239835.94     13041.31    12780.118    13042.007    13301.804    115.23023    99.792308     94.08509 
 1070000    728.14143   -244827.59   -239745.23    13143.672    13273.534    12806.106    13351.377    115.23023    99.792308     94.08509 
 1080000    731.90715   -244769.48   -239660.83    13287.899    13574.812    13354.966    12933.918    115.23023    99.792308     94.08509 
 1090000     738.6649   -244707.76   -239551.94     13406.17    13197.124     13849.44    13171.946    115.23023    99.792308     94.08509 
 1100000    751.56655   -244615.82   -239369.94    13713.373    14052.861    13693.414    13393.843    115.23023    99.792308     94.08509 
Loop time of 1814.59 on 108 procs for 1000000 steps with 54000 atoms

Performance: 23.807 ns/day, 1.008 hours/ns, 551.087 timesteps/s
100.0% CPU use with 108 MPI tasks x no OpenMP threads

MPI task timing breakdown:
Section |  min time  |  avg time  |  max time  |%varavg| %total
---------------------------------------------------------------
Pair    | 1533.4     | 1551.3     | 1590       |  25.3 | 85.49
Neigh   | 0.001634   | 0.0017952  | 0.0019103  |   0.2 |  0.00
Comm    | 114.82     | 139.22     | 167.98     |  97.3 |  7.67
Output  | 1.4457     | 1.9783     | 3.7791     |  27.5 |  0.11
Modify  | 51.137     | 73.5       | 100.39     | 128.5 |  4.05
Other   |            | 48.64      |            |       |  2.68

Nlocal:    500 ave 501 max 499 min
Histogram: 1 0 0 0 0 106 0 0 0 1
Nghost:    1252.33 ave 1279 max 1225 min
Histogram: 2 5 12 11 19 25 19 7 1 7
Neighs:    0 ave 0 max 0 min
Histogram: 108 0 0 0 0 0 0 0 0 0
FullNghs:  14001.9 ave 14036 max 13978 min
Histogram: 1 0 0 56 45 5 0 0 0 1

Total # of neighbors = 1512204
Ave neighs/atom = 28.0038
Neighbor list builds = 2
Dangerous builds = 0
unfix		NVT
write_restart	restart.NVT.*

# ------------ Annealing -----------------------------------------
fix             equil all langevin ${Thi} $T 0.05 ${langSEED} tally yes zero yes
fix             equil all langevin 750 $T 0.05 ${langSEED} tally yes zero yes
fix             equil all langevin 750 50 0.05 ${langSEED} tally yes zero yes
fix             equil all langevin 750 50 0.05 24164 tally yes zero yes
WARNING: Energy tally does not account for 'zero yes' (../fix_langevin.cpp:181)
fix             NVE all nve
run             ${NRUNanneal}
run             500000
Per MPI rank memory allocation (min/avg/max) = 4.408 | 4.409 | 4.411 Mbytes
Step Temp PotEng TotEng Press Pxx Pyy Pzz Lx Ly Lz 
 1100000    751.56655   -244615.82   -239369.94    13713.373    14052.861    13693.414    13393.843    115.23023    99.792308     94.08509 
 1110000    740.98444   -244741.42   -239569.41    13382.649      13438.9    13595.257    13113.791    115.23023    99.792308     94.08509 
 1120000    724.22534   -244828.56   -239773.53    13078.784    13089.569    13078.039    13068.743    115.23023    99.792308     94.08509 
 1130000    707.73989   -244938.83   -239998.86    12857.323    12881.172    12889.251    12801.544    115.23023    99.792308     94.08509 
 1140000    695.28419   -245001.72   -240148.69    12584.197    12472.828    12719.934    12559.829    115.23023    99.792308     94.08509 
 1150000      680.463    -245179.1   -240429.52    12353.411    12289.947    12292.991    12477.295    115.23023    99.792308     94.08509 
 1160000    664.21288   -245281.01   -240644.86    12086.028    12253.096    12239.939     11765.05    115.23023    99.792308     94.08509 
 1170000    649.42598   -245344.09   -240811.15    11808.525    11795.482     11785.04    11845.051    115.23023    99.792308     94.08509 
 1180000    634.76215   -245436.45   -241005.86    11579.268    12036.626    11394.006    11307.171    115.23023    99.792308     94.08509 
 1190000    618.54787   -245574.08   -241256.66     11274.78    11179.561    11351.171    11293.608    115.23023    99.792308     94.08509 
 1200000    610.53804   -245661.44   -241399.93    11138.517     11135.93     11154.95    11124.673    115.23023    99.792308     94.08509 
 1210000    594.51393   -245779.07   -241629.41    10796.936     10882.53      11035.4    10472.879    115.23023    99.792308     94.08509 
 1220000    576.70026   -245858.13   -241832.81    10567.828    10239.474    10806.654    10657.357    115.23023    99.792308     94.08509 
 1230000    568.92156   -245986.24   -242015.21    10327.828    10752.677    10248.176    9982.6298    115.23023    99.792308     94.08509 
 1240000    553.92333   -246078.24    -242211.9    9997.5784    9806.9883     10095.48    10090.267    115.23023    99.792308     94.08509 
 1250000    538.45791    -246129.2    -242370.8    9837.8031    9560.8419    9595.9555    10356.612    115.23023    99.792308     94.08509 
 1260000    527.08181   -246244.19   -242565.21     9626.626    9577.9281    9368.1087    9933.8411    115.23023    99.792308     94.08509 
 1270000    512.79005   -246366.33    -242787.1    9352.5078    9381.6246    8958.5536    9717.3451    115.23023    99.792308     94.08509 
 1280000    497.80344   -246463.12   -242988.49    9115.3945    9260.6395    9082.2459    9003.2981    115.23023    99.792308     94.08509 
 1290000    484.55413   -246566.31   -243184.16    8844.2167    8618.1666    9235.7282    8678.7552    115.23023    99.792308     94.08509 
 1300000    468.39335   -246652.04   -243382.69    8615.2778    8374.5671    8951.4782    8519.7881    115.23023    99.792308     94.08509 
 1310000    457.18346   -246762.57   -243571.47     8380.613    8201.6839    8689.4657    8250.6895    115.23023    99.792308     94.08509 
 1320000    443.93263    -246895.4   -243796.79    8063.5649    8089.2047    7762.1047    8339.3852    115.23023    99.792308     94.08509 
 1330000    426.30428   -246967.91   -243992.34    7805.1757    7820.6845    8100.4133    7494.4292    115.23023    99.792308     94.08509 
 1340000    411.53067   -247053.64   -244181.19    7567.4424    7597.8241    7391.2158    7713.2874    115.23023    99.792308     94.08509 
 1350000    398.51989   -247164.49   -244382.85    7324.2236    7297.0951    7262.8305    7412.7453    115.23023    99.792308     94.08509 
 1360000     386.1345   -247277.46   -244582.28    7039.0629     7016.746     7047.509    7052.9337    115.23023    99.792308     94.08509 
 1370000    370.13114   -247365.15   -244781.66    6788.7377    6778.6812    6772.9184    6814.6136    115.23023    99.792308     94.08509 
 1380000     359.2632   -247474.37   -244966.74    6545.5189     6542.998     6715.052    6378.5069    115.23023    99.792308     94.08509 
 1390000    342.79719   -247577.42   -245184.72    6277.6195     6489.575    5924.2217    6419.0617    115.23023    99.792308     94.08509 
 1400000    330.90843   -247675.19   -245365.47    6038.8377    5969.1218    6030.2802    6117.1112    115.23023    99.792308     94.08509 
 1410000    315.81072   -247766.45   -245562.12    5780.9227    6036.5454    5694.6633    5611.5594    115.23023    99.792308     94.08509 
 1420000    303.07826   -247867.98   -245752.52    5514.5857    5266.0517    5489.3219    5788.3836    115.23023    99.792308     94.08509 
 1430000    289.47687   -247970.43    -245949.9    5281.5233    5211.7337    5415.0806    5217.7555    115.23023    99.792308     94.08509 
 1440000    273.17317   -248064.94   -246158.21    5002.5911    4959.1565    4999.5994    5049.0172    115.23023    99.792308     94.08509 
 1450000    259.54886   -248166.33    -246354.7    4750.9758    4558.5197    4821.7957    4872.6119    115.23023    99.792308     94.08509 
 1460000     246.9337   -248254.16   -246530.58    4531.9418    4514.1991    4452.9038    4628.7224    115.23023    99.792308     94.08509 
 1470000    233.01204   -248358.29   -246731.88    4291.1749    4378.4626    4433.9822    4061.0799    115.23023    99.792308     94.08509 
 1480000    217.56514   -248455.52   -246936.93    4023.5153    4085.1903    4111.0138     3874.342    115.23023    99.792308     94.08509 
 1490000    203.85955   -248564.09   -247141.17    3742.7144    3799.2545    3663.6858    3765.2029    115.23023    99.792308     94.08509 
 1500000    190.57599    -248664.4    -247334.2    3494.6576    3631.2719    3233.5121    3619.1887    115.23023    99.792308     94.08509 
 1510000    176.83794    -248756.4   -247522.08    3254.0981     3392.657    3077.5257    3292.1114    115.23023    99.792308     94.08509 
 1520000    162.31514   -248860.61   -247727.66    2963.7743    2996.3444    2752.2896    3142.6887    115.23023    99.792308     94.08509 
 1530000    146.89981   -248955.53   -247930.19    2729.0241    2602.7566    2584.5572    2999.7585    115.23023    99.792308     94.08509 
 1540000     133.9302   -249059.83   -248125.01    2451.4897    2343.2009      2518.51    2492.7582    115.23023    99.792308     94.08509 
 1550000    121.08318   -249156.25    -248311.1    2219.4723    2342.2476     2167.352    2148.8172    115.23023    99.792308     94.08509 
 1560000    105.48178   -249254.11   -248517.86    1944.7695    1875.5867    1811.0515    2147.6703    115.23023    99.792308     94.08509 
 1570000    91.831377   -249347.28   -248706.31    1703.5933    1812.2702    1737.2813    1561.2282    115.23023    99.792308     94.08509 
 1580000    78.303483    -249450.8   -248904.25    1443.4478    1490.4463    1405.7487    1434.1485    115.23023    99.792308     94.08509 
 1590000    64.325431   -249551.38    -249102.4    1175.4868    1144.9349     1149.159    1232.3664    115.23023    99.792308     94.08509 
 1600000    50.181283   -249646.86    -249296.6    929.28887    986.83567    825.17166    975.85928    115.23023    99.792308     94.08509 
Loop time of 925.982 on 108 procs for 500000 steps with 54000 atoms

Performance: 23.327 ns/day, 1.029 hours/ns, 539.967 timesteps/s
100.0% CPU use with 108 MPI tasks x no OpenMP threads

MPI task timing breakdown:
Section |  min time  |  avg time  |  max time  |%varavg| %total
---------------------------------------------------------------
Pair    | 772.41     | 783.57     | 804.47     |  20.9 | 84.62
Neigh   | 0.0015304  | 0.00168    | 0.0017947  |   0.2 |  0.00
Comm    | 57.326     | 70.825     | 86.318     |  73.6 |  7.65
Output  | 0.69625    | 0.96578    | 1.8713     |  19.8 |  0.10
Modify  | 39.453     | 50.289     | 62.209     |  77.6 |  5.43
Other   |            | 20.33      |            |       |  2.20

Nlocal:    500 ave 500 max 500 min
Histogram: 108 0 0 0 0 0 0 0 0 0
Nghost:    1182.13 ave 1199 max 1172 min
Histogram: 4 15 19 16 33 14 5 1 0 1
Neighs:    0 ave 0 max 0 min
Histogram: 108 0 0 0 0 0 0 0 0 0
FullNghs:  14000 ave 14000 max 14000 min
Histogram: 108 0 0 0 0 0 0 0 0 0

Total # of neighbors = 1512000
Ave neighs/atom = 28
Neighbor list builds = 2
Dangerous builds = 0
unfix           equil
unfix           NVE
write_restart	restart.anneal.300.*

# -------------- NVE Equilibration ----------------------------------
fix             NVE all nve
dump            snapNVExyz all custom ${snapprint} snap.NVE.lammpstrj id type x y z
dump            snapNVExyz all custom 1000 snap.NVE.lammpstrj id type x y z
run             ${NRUNNVE}
run             100000
Per MPI rank memory allocation (min/avg/max) = 5.302 | 5.303 | 5.305 Mbytes
Step Temp PotEng TotEng Press Pxx Pyy Pzz Lx Ly Lz 
 1600000    50.181283   -249646.86    -249296.6    929.28887    986.83567    825.17166    975.85928    115.23023    99.792308     94.08509 
 1610000    50.147668   -249646.63    -249296.6    924.23857    925.15555    898.25293    949.30722    115.23023    99.792308     94.08509 
 1620000    50.147686   -249646.63    -249296.6    924.67951    893.19273    1014.7612    866.08463    115.23023    99.792308     94.08509 
 1630000    50.015262    -249645.7    -249296.6    930.04519     897.1318    947.92233    945.08143    115.23023    99.792308     94.08509 
 1640000    50.189334   -249646.92    -249296.6    924.17682     980.4883    850.72962    941.31254    115.23023    99.792308     94.08509 
 1650000    50.150165   -249646.64    -249296.6    928.75894    914.10438    965.77503     906.3974    115.23023    99.792308     94.08509 
 1660000    50.270668   -249647.49    -249296.6    925.46047    814.88936    1009.4547    952.03731    115.23023    99.792308     94.08509 
 1670000    50.323301   -249647.85    -249296.6    928.23589    959.43326    855.85478    969.41962    115.23023    99.792308     94.08509 
 1680000    50.062849   -249646.03    -249296.6     927.1661    1004.6016    897.20011    879.69663    115.23023    99.792308     94.08509 
 1690000    50.143467    -249646.6    -249296.6    924.90411    891.31516    987.05003    896.34715    115.23023    99.792308     94.08509 
 1700000    50.411187   -249648.47    -249296.6    926.12457    884.61454    939.11807    954.64109    115.23023    99.792308     94.08509 
Loop time of 179.696 on 108 procs for 100000 steps with 54000 atoms

Performance: 24.041 ns/day, 0.998 hours/ns, 556.497 timesteps/s
100.0% CPU use with 108 MPI tasks x no OpenMP threads

MPI task timing breakdown:
Section |  min time  |  avg time  |  max time  |%varavg| %total
---------------------------------------------------------------
Pair    | 152.99     | 154.56     | 157.44     |   9.0 | 86.01
Neigh   | 0          | 0          | 0          |   0.0 |  0.00
Comm    | 10.707     | 14.693     | 18.056     |  47.7 |  8.18
Output  | 0.50771    | 0.56337    | 0.73915    |   5.1 |  0.31
Modify  | 0.6542     | 0.77805    | 1.0001     |   8.5 |  0.43
Other   |            | 9.104      |            |       |  5.07

Nlocal:    500 ave 500 max 500 min
Histogram: 108 0 0 0 0 0 0 0 0 0
Nghost:    1164.11 ave 1165 max 1164 min
Histogram: 96 0 0 0 0 0 0 0 0 12
Neighs:    0 ave 0 max 0 min
Histogram: 108 0 0 0 0 0 0 0 0 0
FullNghs:  14000 ave 14000 max 14000 min
Histogram: 108 0 0 0 0 0 0 0 0 0

Total # of neighbors = 1512000
Ave neighs/atom = 28
Neighbor list builds = 0
Dangerous builds = 0
unfix           NVE
write_restart   restart.anneal.NVE.*

# ------------ Pressure Relaxation -----------------------------------------
#fix             NPT all npt temp $T $T 0.05 x 0 0 0.5 y 0 0 0.5 z 0 0 0.5 couple none tchain 10
fix             NPT all npt temp $T $T 0.05 x 0 0 0.5 y 0 0 0.5 z 0 0 0.5 xy 0 0 0.5 xz 0 0 0.5 yz 0 0 0.5 couple none tchain 10
fix             NPT all npt temp 50 $T 0.05 x 0 0 0.5 y 0 0 0.5 z 0 0 0.5 xy 0 0 0.5 xz 0 0 0.5 yz 0 0 0.5 couple none tchain 10
fix             NPT all npt temp 50 50 0.05 x 0 0 0.5 y 0 0 0.5 z 0 0 0.5 xy 0 0 0.5 xz 0 0 0.5 yz 0 0 0.5 couple none tchain 10

run             ${NRUNNPT}
run             100000
Per MPI rank memory allocation (min/avg/max) = 5.318 | 5.319 | 5.321 Mbytes
Step Temp PotEng TotEng Press Pxx Pyy Pzz Lx Ly Lz 
 1700000    50.411187   -249648.47    -249296.6    926.12457    884.61454    939.11807    954.64109    115.23023    99.792308     94.08509 
 1710000    49.914651   -249648.68   -249300.28    14.344082    47.008777   -66.496379    62.519849     115.2656    99.827672    94.110602 
 1720000    50.076995   -249649.36   -249299.83   -37.923523   -69.680246   -6.9092414   -37.181083    115.27129    99.824389    94.113627 
 1730000    50.000025   -249647.28   -249298.28   -15.710647    -73.75637   -32.014935    58.639364    115.27243    99.826241    94.109246 
 1740000    49.920385   -249645.93   -249297.49     14.12884    28.346059   -36.416959    50.457419    115.26498    99.825203    94.113788 
 1750000    49.988524   -249649.41    -249300.5  0.085945617    88.243781   -66.664553   -21.321391    115.26285    99.828241    94.113413 
 1760000    50.121034   -249648.28   -249298.44   -32.255168   -57.120694   -20.806598   -18.838212    115.27146     99.82297    94.114708 
 1770000    50.525278   -249648.61   -249295.94    7.8268282    54.769935    -45.27664    13.987189    115.25979    99.827361     94.11661 
 1780000    50.015753   -249647.58   -249298.47   -19.176565    41.105392   -71.124394   -27.510693    115.26336    99.828493    94.114482 
 1790000    49.940912   -249647.74   -249299.15   -10.248242   -41.850554    7.3403777    3.7654487    115.26995    99.823964     94.11264 
 1800000    50.170474   -249648.84   -249298.65    29.406343   -60.183724    71.328388    77.074364     115.2723    99.821158    94.109764 
Loop time of 187.889 on 108 procs for 100000 steps with 54000 atoms

Performance: 22.992 ns/day, 1.044 hours/ns, 532.228 timesteps/s
99.9% CPU use with 108 MPI tasks x no OpenMP threads

MPI task timing breakdown:
Section |  min time  |  avg time  |  max time  |%varavg| %total
---------------------------------------------------------------
Pair    | 153.27     | 154.93     | 158.08     |   9.1 | 82.46
Neigh   | 0          | 0          | 0          |   0.0 |  0.00
Comm    | 10.267     | 13.512     | 16.33      |  35.9 |  7.19
Output  | 0.52501    | 0.58634    | 0.77081    |   5.5 |  0.31
Modify  | 14.6       | 17.269     | 20.506     |  32.4 |  9.19
Other   |            | 1.594      |            |       |  0.85

Nlocal:    500 ave 500 max 500 min
Histogram: 108 0 0 0 0 0 0 0 0 0
Nghost:    1164.27 ave 1167 max 1164 min
Histogram: 85 0 0 18 0 0 4 0 0 1
Neighs:    0 ave 0 max 0 min
Histogram: 108 0 0 0 0 0 0 0 0 0
FullNghs:  14000 ave 14000 max 14000 min
Histogram: 108 0 0 0 0 0 0 0 0 0

Total # of neighbors = 1512000
Ave neighs/atom = 28
Neighbor list builds = 0
Dangerous builds = 0
unfix           NPT
write_restart   restart.NPT.300.*

# -------------- NVE Equilibration ----------------------------------
fix             NVE all nve
dump            snapNVEPxyz all custom ${snapprint} snap.NVE.pressure.lammpstrj id type x y z
dump            snapNVEPxyz all custom 1000 snap.NVE.pressure.lammpstrj id type x y z
run             ${NRUNNVE}
run             100000
Per MPI rank memory allocation (min/avg/max) = 6.571 | 6.572 | 6.574 Mbytes
Step Temp PotEng TotEng Press Pxx Pyy Pzz Lx Ly Lz 
 1800000    50.170474   -249648.84   -249298.65    29.406343   -60.183724    71.328388    77.074364     115.2723    99.821158    94.109764 
 1810000    49.883277   -249646.83   -249298.65    26.841814     -17.1278   -13.874076    111.52732     115.2723    99.821158    94.109764 
 1820000    50.097879   -249648.33   -249298.65    27.390031   -14.539012   -22.815342    119.52445     115.2723    99.821158    94.109764 
 1830000    50.101295   -249648.36   -249298.65    29.596352   -37.686034    6.1579284    120.31716     115.2723    99.821158    94.109764 
 1840000    50.147349   -249648.68   -249298.65    26.146106   -74.994153    49.327808    104.10466     115.2723    99.821158    94.109764 
 1850000    49.941965   -249647.24   -249298.65    26.094467   -60.726322    85.520448    53.489274     115.2723    99.821158    94.109764 
 1860000    49.988506   -249647.57   -249298.65    30.886395   -61.592577    110.89118    43.360582     115.2723    99.821158    94.109764 
 1870000    49.775391   -249646.08   -249298.65    32.203687   -49.425556      66.4433    79.593316     115.2723    99.821158    94.109764 
 1880000    49.842993   -249646.55   -249298.65    31.588494   -11.959823    -13.75552    120.48083     115.2723    99.821158    94.109764 
 1890000     49.99358    -249647.6   -249298.65    29.744058   -23.924764   -13.664197    126.82114     115.2723    99.821158    94.109764 
 1900000    50.005174   -249647.68   -249298.65    30.365654   -17.265902    67.669515     40.69335     115.2723    99.821158    94.109764 
Loop time of 181.825 on 108 procs for 100000 steps with 54000 atoms

Performance: 23.759 ns/day, 1.010 hours/ns, 549.981 timesteps/s
100.0% CPU use with 108 MPI tasks x no OpenMP threads

MPI task timing breakdown:
Section |  min time  |  avg time  |  max time  |%varavg| %total
---------------------------------------------------------------
Pair    | 152.87     | 154.45     | 157.44     |   8.8 | 84.94
Neigh   | 0          | 0          | 0          |   0.0 |  0.00
Comm    | 11.467     | 15.178     | 18.455     |  38.7 |  8.35
Output  | 0.87597    | 0.93313    | 1.112      |   4.1 |  0.51
Modify  | 0.64688    | 0.78072    | 0.92719    |   8.2 |  0.43
Other   |            | 10.48      |            |       |  5.77

Nlocal:    500 ave 500 max 500 min
Histogram: 108 0 0 0 0 0 0 0 0 0
Nghost:    1164.13 ave 1165 max 1164 min
Histogram: 94 0 0 0 0 0 0 0 0 14
Neighs:    0 ave 0 max 0 min
Histogram: 108 0 0 0 0 0 0 0 0 0
FullNghs:  14000 ave 14000 max 14000 min
Histogram: 108 0 0 0 0 0 0 0 0 0

Total # of neighbors = 1512000
Ave neighs/atom = 28
Neighbor list builds = 0
Dangerous builds = 0
unfix           NVE
write_restart   restart.NVE.pressure.*

write_restart   restart.final.*
write_data	data.relaxed nocoeff
Total wall time: 1:01:08
