LAMMPS pos FILE

16000 atoms

2 atom types

-0.6930625 110.1969375 xlo xhi
-0.6930625 54.751937500000004 ylo yhi
-0.6930625 54.751937500000004 zlo zhi

Masses

1 28.0855
2 72.64

Atoms

1 1 0.0 0.0 0.0
2 1 0.0 2.77225 2.77225
3 1 2.77225 0.0 2.77225
4 1 2.77225 2.77225 0.0
5 1 1.386125 1.386125 1.386125
6 1 4.158375 4.158375 1.386125
7 1 1.386125 4.158375 4.158375
8 1 4.158375 1.386125 4.158375
9 2 5.5445 0.0 0.0
10 2 5.5445 2.77225 2.77225
11 2 8.31675 0.0 2.77225
12 2 8.31675 2.77225 0.0
13 2 6.930625 1.386125 1.386125
14 2 9.702875 4.158375 1.386125
15 2 6.930625 4.158375 4.158375
16 2 9.702875 1.386125 4.158375
17 1 11.089 0.0 0.0
18 1 11.089 2.77225 2.77225
19 1 13.86125 0.0 2.77225
20 1 13.86125 2.77225 0.0
21 1 12.475125 1.386125 1.386125
22 1 15.247375 4.158375 1.386125
23 1 12.475125 4.158375 4.158375
24 1 15.247375 1.386125 4.158375
25 2 16.6335 0.0 0.0
26 2 16.6335 2.77225 2.77225
27 2 19.40575 0.0 2.77225
28 2 19.40575 2.77225 0.0
29 2 18.019625 1.386125 1.386125
30 2 20.791875 4.158375 1.386125
31 2 18.019625 4.158375 4.158375
32 2 20.791875 1.386125 4.158375
33 1 22.178 0.0 0.0
34 1 22.178 2.77225 2.77225
35 1 24.95025 0.0 2.77225
36 1 24.95025 2.77225 0.0
37 1 23.564125 1.386125 1.386125
38 1 26.336375 4.158375 1.386125
39 1 23.564125 4.158375 4.158375
40 1 26.336375 1.386125 4.158375
41 2 27.7225 0.0 0.0
42 2 27.7225 2.77225 2.77225
43 2 30.49475 0.0 2.77225
44 2 30.49475 2.77225 0.0
45 2 29.108625 1.386125 1.386125
46 2 31.880875 4.158375 1.386125
47 2 29.108625 4.158375 4.158375
48 2 31.880875 1.386125 4.158375
49 1 33.267 0.0 0.0
50 1 33.267 2.77225 2.77225
51 1 36.03925 0.0 2.77225
52 1 36.03925 2.77225 0.0
53 1 34.653125 1.386125 1.386125
54 1 37.425375 4.158375 1.386125
55 1 34.653125 4.158375 4.158375
56 1 37.425375 1.386125 4.158375
57 2 38.8115 0.0 0.0
58 2 38.8115 2.77225 2.77225
59 2 41.58375 0.0 2.77225
60 2 41.58375 2.77225 0.0
61 2 40.197625 1.386125 1.386125
62 2 42.969875 4.158375 1.386125
63 2 40.197625 4.158375 4.158375
64 2 42.969875 1.386125 4.158375
65 1 44.356 0.0 0.0
66 1 44.356 2.77225 2.77225
67 1 47.12825 0.0 2.77225
68 1 47.12825 2.77225 0.0
69 1 45.742125 1.386125 1.386125
70 1 48.514375 4.158375 1.386125
71 1 45.742125 4.158375 4.158375
72 1 48.514375 1.386125 4.158375
73 2 49.9005 0.0 0.0
74 2 49.9005 2.77225 2.77225
75 2 52.67275 0.0 2.77225
76 2 52.67275 2.77225 0.0
77 2 51.286625 1.386125 1.386125
78 2 54.058875 4.158375 1.386125
79 2 51.286625 4.158375 4.158375
80 2 54.058875 1.386125 4.158375
81 1 55.445 0.0 0.0
82 1 55.445 2.77225 2.77225
83 1 58.21725 0.0 2.77225
84 1 58.21725 2.77225 0.0
85 1 56.831125 1.386125 1.386125
86 1 59.603375 4.158375 1.386125
87 1 56.831125 4.158375 4.158375
88 1 59.603375 1.386125 4.158375
89 2 60.9895 0.0 0.0
90 2 60.9895 2.77225 2.77225
91 2 63.76175 0.0 2.77225
92 2 63.76175 2.77225 0.0
93 2 62.375625 1.386125 1.386125
94 2 65.147875 4.158375 1.386125
95 2 62.375625 4.158375 4.158375
96 2 65.147875 1.386125 4.158375
97 1 66.534 0.0 0.0
98 1 66.534 2.77225 2.77225
99 1 69.30625 0.0 2.77225
100 1 69.30625 2.77225 0.0
101 1 67.920125 1.386125 1.386125
102 1 70.692375 4.158375 1.386125
103 1 67.920125 4.158375 4.158375
104 1 70.692375 1.386125 4.158375
105 2 72.0785 0.0 0.0
106 2 72.0785 2.77225 2.77225
107 2 74.85075 0.0 2.77225
108 2 74.85075 2.77225 0.0
109 2 73.464625 1.386125 1.386125
110 2 76.236875 4.158375 1.386125
111 2 73.464625 4.158375 4.158375
112 2 76.236875 1.386125 4.158375
113 1 77.623 0.0 0.0
114 1 77.623 2.77225 2.77225
115 1 80.39525 0.0 2.77225
116 1 80.39525 2.77225 0.0
117 1 79.009125 1.386125 1.386125
118 1 81.781375 4.158375 1.386125
119 1 79.009125 4.158375 4.158375
120 1 81.781375 1.386125 4.158375
121 2 83.1675 0.0 0.0
122 2 83.1675 2.77225 2.77225
123 2 85.93975 0.0 2.77225
124 2 85.93975 2.77225 0.0
125 2 84.553625 1.386125 1.386125
126 2 87.325875 4.158375 1.386125
127 2 84.553625 4.158375 4.158375
128 2 87.325875 1.386125 4.158375
129 1 88.712 0.0 0.0
130 1 88.712 2.77225 2.77225
131 1 91.48425 0.0 2.77225
132 1 91.48425 2.77225 0.0
133 1 90.09812500000001 1.386125 1.386125
134 1 92.87037500000001 4.158375 1.386125
135 1 90.09812500000001 4.158375 4.158375
136 1 92.87037500000001 1.386125 4.158375
137 2 94.2565 0.0 0.0
138 2 94.2565 2.77225 2.77225
139 2 97.02875 0.0 2.77225
140 2 97.02875 2.77225 0.0
141 2 95.64262500000001 1.386125 1.386125
142 2 98.41487500000001 4.158375 1.386125
143 2 95.64262500000001 4.158375 4.158375
144 2 98.41487500000001 1.386125 4.158375
145 1 99.801 0.0 0.0
146 1 99.801 2.77225 2.77225
147 1 102.57325 0.0 2.77225
148 1 102.57325 2.77225 0.0
149 1 101.18712500000001 1.386125 1.386125
150 1 103.95937500000001 4.158375 1.386125
151 1 101.18712500000001 4.158375 4.158375
152 1 103.95937500000001 1.386125 4.158375
153 2 105.3455 0.0 0.0
154 2 105.3455 2.77225 2.77225
155 2 108.11775 0.0 2.77225
156 2 108.11775 2.77225 0.0
157 2 106.73162500000001 1.386125 1.386125
158 2 109.50387500000001 4.158375 1.386125
159 2 106.73162500000001 4.158375 4.158375
160 2 109.50387500000001 1.386125 4.158375
161 1 0.0 5.5445 0.0
162 1 0.0 8.31675 2.77225
163 1 2.77225 5.5445 2.77225
164 1 2.77225 8.31675 0.0
165 1 1.386125 6.930625 1.386125
166 1 4.158375 9.702875 1.386125
167 1 1.386125 9.702875 4.158375
168 1 4.158375 6.930625 4.158375
169 2 5.5445 5.5445 0.0
170 2 5.5445 8.31675 2.77225
171 2 8.31675 5.5445 2.77225
172 2 8.31675 8.31675 0.0
173 2 6.930625 6.930625 1.386125
174 2 9.702875 9.702875 1.386125
175 2 6.930625 9.702875 4.158375
176 2 9.702875 6.930625 4.158375
177 1 11.089 5.5445 0.0
178 1 11.089 8.31675 2.77225
179 1 13.86125 5.5445 2.77225
180 1 13.86125 8.31675 0.0
181 1 12.475125 6.930625 1.386125
182 1 15.247375 9.702875 1.386125
183 1 12.475125 9.702875 4.158375
184 1 15.247375 6.930625 4.158375
185 2 16.6335 5.5445 0.0
186 2 16.6335 8.31675 2.77225
187 2 19.40575 5.5445 2.77225
188 2 19.40575 8.31675 0.0
189 2 18.019625 6.930625 1.386125
190 2 20.791875 9.702875 1.386125
191 2 18.019625 9.702875 4.158375
192 2 20.791875 6.930625 4.158375
193 1 22.178 5.5445 0.0
194 1 22.178 8.31675 2.77225
195 1 24.95025 5.5445 2.77225
196 1 24.95025 8.31675 0.0
197 1 23.564125 6.930625 1.386125
198 1 26.336375 9.702875 1.386125
199 1 23.564125 9.702875 4.158375
200 1 26.336375 6.930625 4.158375
201 2 27.7225 5.5445 0.0
202 2 27.7225 8.31675 2.77225
203 2 30.49475 5.5445 2.77225
204 2 30.49475 8.31675 0.0
205 2 29.108625 6.930625 1.386125
206 2 31.880875 9.702875 1.386125
207 2 29.108625 9.702875 4.158375
208 2 31.880875 6.930625 4.158375
209 1 33.267 5.5445 0.0
210 1 33.267 8.31675 2.77225
211 1 36.03925 5.5445 2.77225
212 1 36.03925 8.31675 0.0
213 1 34.653125 6.930625 1.386125
214 1 37.425375 9.702875 1.386125
215 1 34.653125 9.702875 4.158375
216 1 37.425375 6.930625 4.158375
217 2 38.8115 5.5445 0.0
218 2 38.8115 8.31675 2.77225
219 2 41.58375 5.5445 2.77225
220 2 41.58375 8.31675 0.0
221 2 40.197625 6.930625 1.386125
222 2 42.969875 9.702875 1.386125
223 2 40.197625 9.702875 4.158375
224 2 42.969875 6.930625 4.158375
225 1 44.356 5.5445 0.0
226 1 44.356 8.31675 2.77225
227 1 47.12825 5.5445 2.77225
228 1 47.12825 8.31675 0.0
229 1 45.742125 6.930625 1.386125
230 1 48.514375 9.702875 1.386125
231 1 45.742125 9.702875 4.158375
232 1 48.514375 6.930625 4.158375
233 2 49.9005 5.5445 0.0
234 2 49.9005 8.31675 2.77225
235 2 52.67275 5.5445 2.77225
236 2 52.67275 8.31675 0.0
237 2 51.286625 6.930625 1.386125
238 2 54.058875 9.702875 1.386125
239 2 51.286625 9.702875 4.158375
240 2 54.058875 6.930625 4.158375
241 1 55.445 5.5445 0.0
242 1 55.445 8.31675 2.77225
243 1 58.21725 5.5445 2.77225
244 1 58.21725 8.31675 0.0
245 1 56.831125 6.930625 1.386125
246 1 59.603375 9.702875 1.386125
247 1 56.831125 9.702875 4.158375
248 1 59.603375 6.930625 4.158375
249 2 60.9895 5.5445 0.0
250 2 60.9895 8.31675 2.77225
251 2 63.76175 5.5445 2.77225
252 2 63.76175 8.31675 0.0
253 2 62.375625 6.930625 1.386125
254 2 65.147875 9.702875 1.386125
255 2 62.375625 9.702875 4.158375
256 2 65.147875 6.930625 4.158375
257 1 66.534 5.5445 0.0
258 1 66.534 8.31675 2.77225
259 1 69.30625 5.5445 2.77225
260 1 69.30625 8.31675 0.0
261 1 67.920125 6.930625 1.386125
262 1 70.692375 9.702875 1.386125
263 1 67.920125 9.702875 4.158375
264 1 70.692375 6.930625 4.158375
265 2 72.0785 5.5445 0.0
266 2 72.0785 8.31675 2.77225
267 2 74.85075 5.5445 2.77225
268 2 74.85075 8.31675 0.0
269 2 73.464625 6.930625 1.386125
270 2 76.236875 9.702875 1.386125
271 2 73.464625 9.702875 4.158375
272 2 76.236875 6.930625 4.158375
273 1 77.623 5.5445 0.0
274 1 77.623 8.31675 2.77225
275 1 80.39525 5.5445 2.77225
276 1 80.39525 8.31675 0.0
277 1 79.009125 6.930625 1.386125
278 1 81.781375 9.702875 1.386125
279 1 79.009125 9.702875 4.158375
280 1 81.781375 6.930625 4.158375
281 2 83.1675 5.5445 0.0
282 2 83.1675 8.31675 2.77225
283 2 85.93975 5.5445 2.77225
284 2 85.93975 8.31675 0.0
285 2 84.553625 6.930625 1.386125
286 2 87.325875 9.702875 1.386125
287 2 84.553625 9.702875 4.158375
288 2 87.325875 6.930625 4.158375
289 1 88.712 5.5445 0.0
290 1 88.712 8.31675 2.77225
291 1 91.48425 5.5445 2.77225
292 1 91.48425 8.31675 0.0
293 1 90.09812500000001 6.930625 1.386125
294 1 92.87037500000001 9.702875 1.386125
295 1 90.09812500000001 9.702875 4.158375
296 1 92.87037500000001 6.930625 4.158375
297 2 94.2565 5.5445 0.0
298 2 94.2565 8.31675 2.77225
299 2 97.02875 5.5445 2.77225
300 2 97.02875 8.31675 0.0
301 2 95.64262500000001 6.930625 1.386125
302 2 98.41487500000001 9.702875 1.386125
303 2 95.64262500000001 9.702875 4.158375
304 2 98.41487500000001 6.930625 4.158375
305 1 99.801 5.5445 0.0
306 1 99.801 8.31675 2.77225
307 1 102.57325 5.5445 2.77225
308 1 102.57325 8.31675 0.0
309 1 101.18712500000001 6.930625 1.386125
310 1 103.95937500000001 9.702875 1.386125
311 1 101.18712500000001 9.702875 4.158375
312 1 103.95937500000001 6.930625 4.158375
313 2 105.3455 5.5445 0.0
314 2 105.3455 8.31675 2.77225
315 2 108.11775 5.5445 2.77225
316 2 108.11775 8.31675 0.0
317 2 106.73162500000001 6.930625 1.386125
318 2 109.50387500000001 9.702875 1.386125
319 2 106.73162500000001 9.702875 4.158375
320 2 109.50387500000001 6.930625 4.158375
321 1 0.0 11.089 0.0
322 1 0.0 13.86125 2.77225
323 1 2.77225 11.089 2.77225
324 1 2.77225 13.86125 0.0
325 1 1.386125 12.475125 1.386125
326 1 4.158375 15.247375 1.386125
327 1 1.386125 15.247375 4.158375
328 1 4.158375 12.475125 4.158375
329 2 5.5445 11.089 0.0
330 2 5.5445 13.86125 2.77225
331 2 8.31675 11.089 2.77225
332 2 8.31675 13.86125 0.0
333 2 6.930625 12.475125 1.386125
334 2 9.702875 15.247375 1.386125
335 2 6.930625 15.247375 4.158375
336 2 9.702875 12.475125 4.158375
337 1 11.089 11.089 0.0
338 1 11.089 13.86125 2.77225
339 1 13.86125 11.089 2.77225
340 1 13.86125 13.86125 0.0
341 1 12.475125 12.475125 1.386125
342 1 15.247375 15.247375 1.386125
343 1 12.475125 15.247375 4.158375
344 1 15.247375 12.475125 4.158375
345 2 16.6335 11.089 0.0
346 2 16.6335 13.86125 2.77225
347 2 19.40575 11.089 2.77225
348 2 19.40575 13.86125 0.0
349 2 18.019625 12.475125 1.386125
350 2 20.791875 15.247375 1.386125
351 2 18.019625 15.247375 4.158375
352 2 20.791875 12.475125 4.158375
353 1 22.178 11.089 0.0
354 1 22.178 13.86125 2.77225
355 1 24.95025 11.089 2.77225
356 1 24.95025 13.86125 0.0
357 1 23.564125 12.475125 1.386125
358 1 26.336375 15.247375 1.386125
359 1 23.564125 15.247375 4.158375
360 1 26.336375 12.475125 4.158375
361 2 27.7225 11.089 0.0
362 2 27.7225 13.86125 2.77225
363 2 30.49475 11.089 2.77225
364 2 30.49475 13.86125 0.0
365 2 29.108625 12.475125 1.386125
366 2 31.880875 15.247375 1.386125
367 2 29.108625 15.247375 4.158375
368 2 31.880875 12.475125 4.158375
369 1 33.267 11.089 0.0
370 1 33.267 13.86125 2.77225
371 1 36.03925 11.089 2.77225
372 1 36.03925 13.86125 0.0
373 1 34.653125 12.475125 1.386125
374 1 37.425375 15.247375 1.386125
375 1 34.653125 15.247375 4.158375
376 1 37.425375 12.475125 4.158375
377 2 38.8115 11.089 0.0
378 2 38.8115 13.86125 2.77225
379 2 41.58375 11.089 2.77225
380 2 41.58375 13.86125 0.0
381 2 40.197625 12.475125 1.386125
382 2 42.969875 15.247375 1.386125
383 2 40.197625 15.247375 4.158375
384 2 42.969875 12.475125 4.158375
385 1 44.356 11.089 0.0
386 1 44.356 13.86125 2.77225
387 1 47.12825 11.089 2.77225
388 1 47.12825 13.86125 0.0
389 1 45.742125 12.475125 1.386125
390 1 48.514375 15.247375 1.386125
391 1 45.742125 15.247375 4.158375
392 1 48.514375 12.475125 4.158375
393 2 49.9005 11.089 0.0
394 2 49.9005 13.86125 2.77225
395 2 52.67275 11.089 2.77225
396 2 52.67275 13.86125 0.0
397 2 51.286625 12.475125 1.386125
398 2 54.058875 15.247375 1.386125
399 2 51.286625 15.247375 4.158375
400 2 54.058875 12.475125 4.158375
401 1 55.445 11.089 0.0
402 1 55.445 13.86125 2.77225
403 1 58.21725 11.089 2.77225
404 1 58.21725 13.86125 0.0
405 1 56.831125 12.475125 1.386125
406 1 59.603375 15.247375 1.386125
407 1 56.831125 15.247375 4.158375
408 1 59.603375 12.475125 4.158375
409 2 60.9895 11.089 0.0
410 2 60.9895 13.86125 2.77225
411 2 63.76175 11.089 2.77225
412 2 63.76175 13.86125 0.0
413 2 62.375625 12.475125 1.386125
414 2 65.147875 15.247375 1.386125
415 2 62.375625 15.247375 4.158375
416 2 65.147875 12.475125 4.158375
417 1 66.534 11.089 0.0
418 1 66.534 13.86125 2.77225
419 1 69.30625 11.089 2.77225
420 1 69.30625 13.86125 0.0
421 1 67.920125 12.475125 1.386125
422 1 70.692375 15.247375 1.386125
423 1 67.920125 15.247375 4.158375
424 1 70.692375 12.475125 4.158375
425 2 72.0785 11.089 0.0
426 2 72.0785 13.86125 2.77225
427 2 74.85075 11.089 2.77225
428 2 74.85075 13.86125 0.0
429 2 73.464625 12.475125 1.386125
430 2 76.236875 15.247375 1.386125
431 2 73.464625 15.247375 4.158375
432 2 76.236875 12.475125 4.158375
433 1 77.623 11.089 0.0
434 1 77.623 13.86125 2.77225
435 1 80.39525 11.089 2.77225
436 1 80.39525 13.86125 0.0
437 1 79.009125 12.475125 1.386125
438 1 81.781375 15.247375 1.386125
439 1 79.009125 15.247375 4.158375
440 1 81.781375 12.475125 4.158375
441 2 83.1675 11.089 0.0
442 2 83.1675 13.86125 2.77225
443 2 85.93975 11.089 2.77225
444 2 85.93975 13.86125 0.0
445 2 84.553625 12.475125 1.386125
446 2 87.325875 15.247375 1.386125
447 2 84.553625 15.247375 4.158375
448 2 87.325875 12.475125 4.158375
449 1 88.712 11.089 0.0
450 1 88.712 13.86125 2.77225
451 1 91.48425 11.089 2.77225
452 1 91.48425 13.86125 0.0
453 1 90.09812500000001 12.475125 1.386125
454 1 92.87037500000001 15.247375 1.386125
455 1 90.09812500000001 15.247375 4.158375
456 1 92.87037500000001 12.475125 4.158375
457 2 94.2565 11.089 0.0
458 2 94.2565 13.86125 2.77225
459 2 97.02875 11.089 2.77225
460 2 97.02875 13.86125 0.0
461 2 95.64262500000001 12.475125 1.386125
462 2 98.41487500000001 15.247375 1.386125
463 2 95.64262500000001 15.247375 4.158375
464 2 98.41487500000001 12.475125 4.158375
465 1 99.801 11.089 0.0
466 1 99.801 13.86125 2.77225
467 1 102.57325 11.089 2.77225
468 1 102.57325 13.86125 0.0
469 1 101.18712500000001 12.475125 1.386125
470 1 103.95937500000001 15.247375 1.386125
471 1 101.18712500000001 15.247375 4.158375
472 1 103.95937500000001 12.475125 4.158375
473 2 105.3455 11.089 0.0
474 2 105.3455 13.86125 2.77225
475 2 108.11775 11.089 2.77225
476 2 108.11775 13.86125 0.0
477 2 106.73162500000001 12.475125 1.386125
478 2 109.50387500000001 15.247375 1.386125
479 2 106.73162500000001 15.247375 4.158375
480 2 109.50387500000001 12.475125 4.158375
481 1 0.0 16.6335 0.0
482 1 0.0 19.40575 2.77225
483 1 2.77225 16.6335 2.77225
484 1 2.77225 19.40575 0.0
485 1 1.386125 18.019625 1.386125
486 1 4.158375 20.791875 1.386125
487 1 1.386125 20.791875 4.158375
488 1 4.158375 18.019625 4.158375
489 2 5.5445 16.6335 0.0
490 2 5.5445 19.40575 2.77225
491 2 8.31675 16.6335 2.77225
492 2 8.31675 19.40575 0.0
493 2 6.930625 18.019625 1.386125
494 2 9.702875 20.791875 1.386125
495 2 6.930625 20.791875 4.158375
496 2 9.702875 18.019625 4.158375
497 1 11.089 16.6335 0.0
498 1 11.089 19.40575 2.77225
499 1 13.86125 16.6335 2.77225
500 1 13.86125 19.40575 0.0
501 1 12.475125 18.019625 1.386125
502 1 15.247375 20.791875 1.386125
503 1 12.475125 20.791875 4.158375
504 1 15.247375 18.019625 4.158375
505 2 16.6335 16.6335 0.0
506 2 16.6335 19.40575 2.77225
507 2 19.40575 16.6335 2.77225
508 2 19.40575 19.40575 0.0
509 2 18.019625 18.019625 1.386125
510 2 20.791875 20.791875 1.386125
511 2 18.019625 20.791875 4.158375
512 2 20.791875 18.019625 4.158375
513 1 22.178 16.6335 0.0
514 1 22.178 19.40575 2.77225
515 1 24.95025 16.6335 2.77225
516 1 24.95025 19.40575 0.0
517 1 23.564125 18.019625 1.386125
518 1 26.336375 20.791875 1.386125
519 1 23.564125 20.791875 4.158375
520 1 26.336375 18.019625 4.158375
521 2 27.7225 16.6335 0.0
522 2 27.7225 19.40575 2.77225
523 2 30.49475 16.6335 2.77225
524 2 30.49475 19.40575 0.0
525 2 29.108625 18.019625 1.386125
526 2 31.880875 20.791875 1.386125
527 2 29.108625 20.791875 4.158375
528 2 31.880875 18.019625 4.158375
529 1 33.267 16.6335 0.0
530 1 33.267 19.40575 2.77225
531 1 36.03925 16.6335 2.77225
532 1 36.03925 19.40575 0.0
533 1 34.653125 18.019625 1.386125
534 1 37.425375 20.791875 1.386125
535 1 34.653125 20.791875 4.158375
536 1 37.425375 18.019625 4.158375
537 2 38.8115 16.6335 0.0
538 2 38.8115 19.40575 2.77225
539 2 41.58375 16.6335 2.77225
540 2 41.58375 19.40575 0.0
541 2 40.197625 18.019625 1.386125
542 2 42.969875 20.791875 1.386125
543 2 40.197625 20.791875 4.158375
544 2 42.969875 18.019625 4.158375
545 1 44.356 16.6335 0.0
546 1 44.356 19.40575 2.77225
547 1 47.12825 16.6335 2.77225
548 1 47.12825 19.40575 0.0
549 1 45.742125 18.019625 1.386125
550 1 48.514375 20.791875 1.386125
551 1 45.742125 20.791875 4.158375
552 1 48.514375 18.019625 4.158375
553 2 49.9005 16.6335 0.0
554 2 49.9005 19.40575 2.77225
555 2 52.67275 16.6335 2.77225
556 2 52.67275 19.40575 0.0
557 2 51.286625 18.019625 1.386125
558 2 54.058875 20.791875 1.386125
559 2 51.286625 20.791875 4.158375
560 2 54.058875 18.019625 4.158375
561 1 55.445 16.6335 0.0
562 1 55.445 19.40575 2.77225
563 1 58.21725 16.6335 2.77225
564 1 58.21725 19.40575 0.0
565 1 56.831125 18.019625 1.386125
566 1 59.603375 20.791875 1.386125
567 1 56.831125 20.791875 4.158375
568 1 59.603375 18.019625 4.158375
569 2 60.9895 16.6335 0.0
570 2 60.9895 19.40575 2.77225
571 2 63.76175 16.6335 2.77225
572 2 63.76175 19.40575 0.0
573 2 62.375625 18.019625 1.386125
574 2 65.147875 20.791875 1.386125
575 2 62.375625 20.791875 4.158375
576 2 65.147875 18.019625 4.158375
577 1 66.534 16.6335 0.0
578 1 66.534 19.40575 2.77225
579 1 69.30625 16.6335 2.77225
580 1 69.30625 19.40575 0.0
581 1 67.920125 18.019625 1.386125
582 1 70.692375 20.791875 1.386125
583 1 67.920125 20.791875 4.158375
584 1 70.692375 18.019625 4.158375
585 2 72.0785 16.6335 0.0
586 2 72.0785 19.40575 2.77225
587 2 74.85075 16.6335 2.77225
588 2 74.85075 19.40575 0.0
589 2 73.464625 18.019625 1.386125
590 2 76.236875 20.791875 1.386125
591 2 73.464625 20.791875 4.158375
592 2 76.236875 18.019625 4.158375
593 1 77.623 16.6335 0.0
594 1 77.623 19.40575 2.77225
595 1 80.39525 16.6335 2.77225
596 1 80.39525 19.40575 0.0
597 1 79.009125 18.019625 1.386125
598 1 81.781375 20.791875 1.386125
599 1 79.009125 20.791875 4.158375
600 1 81.781375 18.019625 4.158375
601 2 83.1675 16.6335 0.0
602 2 83.1675 19.40575 2.77225
603 2 85.93975 16.6335 2.77225
604 2 85.93975 19.40575 0.0
605 2 84.553625 18.019625 1.386125
606 2 87.325875 20.791875 1.386125
607 2 84.553625 20.791875 4.158375
608 2 87.325875 18.019625 4.158375
609 1 88.712 16.6335 0.0
610 1 88.712 19.40575 2.77225
611 1 91.48425 16.6335 2.77225
612 1 91.48425 19.40575 0.0
613 1 90.09812500000001 18.019625 1.386125
614 1 92.87037500000001 20.791875 1.386125
615 1 90.09812500000001 20.791875 4.158375
616 1 92.87037500000001 18.019625 4.158375
617 2 94.2565 16.6335 0.0
618 2 94.2565 19.40575 2.77225
619 2 97.02875 16.6335 2.77225
620 2 97.02875 19.40575 0.0
621 2 95.64262500000001 18.019625 1.386125
622 2 98.41487500000001 20.791875 1.386125
623 2 95.64262500000001 20.791875 4.158375
624 2 98.41487500000001 18.019625 4.158375
625 1 99.801 16.6335 0.0
626 1 99.801 19.40575 2.77225
627 1 102.57325 16.6335 2.77225
628 1 102.57325 19.40575 0.0
629 1 101.18712500000001 18.019625 1.386125
630 1 103.95937500000001 20.791875 1.386125
631 1 101.18712500000001 20.791875 4.158375
632 1 103.95937500000001 18.019625 4.158375
633 2 105.3455 16.6335 0.0
634 2 105.3455 19.40575 2.77225
635 2 108.11775 16.6335 2.77225
636 2 108.11775 19.40575 0.0
637 2 106.73162500000001 18.019625 1.386125
638 2 109.50387500000001 20.791875 1.386125
639 2 106.73162500000001 20.791875 4.158375
640 2 109.50387500000001 18.019625 4.158375
641 1 0.0 22.178 0.0
642 1 0.0 24.95025 2.77225
643 1 2.77225 22.178 2.77225
644 1 2.77225 24.95025 0.0
645 1 1.386125 23.564125 1.386125
646 1 4.158375 26.336375 1.386125
647 1 1.386125 26.336375 4.158375
648 1 4.158375 23.564125 4.158375
649 2 5.5445 22.178 0.0
650 2 5.5445 24.95025 2.77225
651 2 8.31675 22.178 2.77225
652 2 8.31675 24.95025 0.0
653 2 6.930625 23.564125 1.386125
654 2 9.702875 26.336375 1.386125
655 2 6.930625 26.336375 4.158375
656 2 9.702875 23.564125 4.158375
657 1 11.089 22.178 0.0
658 1 11.089 24.95025 2.77225
659 1 13.86125 22.178 2.77225
660 1 13.86125 24.95025 0.0
661 1 12.475125 23.564125 1.386125
662 1 15.247375 26.336375 1.386125
663 1 12.475125 26.336375 4.158375
664 1 15.247375 23.564125 4.158375
665 2 16.6335 22.178 0.0
666 2 16.6335 24.95025 2.77225
667 2 19.40575 22.178 2.77225
668 2 19.40575 24.95025 0.0
669 2 18.019625 23.564125 1.386125
670 2 20.791875 26.336375 1.386125
671 2 18.019625 26.336375 4.158375
672 2 20.791875 23.564125 4.158375
673 1 22.178 22.178 0.0
674 1 22.178 24.95025 2.77225
675 1 24.95025 22.178 2.77225
676 1 24.95025 24.95025 0.0
677 1 23.564125 23.564125 1.386125
678 1 26.336375 26.336375 1.386125
679 1 23.564125 26.336375 4.158375
680 1 26.336375 23.564125 4.158375
681 2 27.7225 22.178 0.0
682 2 27.7225 24.95025 2.77225
683 2 30.49475 22.178 2.77225
684 2 30.49475 24.95025 0.0
685 2 29.108625 23.564125 1.386125
686 2 31.880875 26.336375 1.386125
687 2 29.108625 26.336375 4.158375
688 2 31.880875 23.564125 4.158375
689 1 33.267 22.178 0.0
690 1 33.267 24.95025 2.77225
691 1 36.03925 22.178 2.77225
692 1 36.03925 24.95025 0.0
693 1 34.653125 23.564125 1.386125
694 1 37.425375 26.336375 1.386125
695 1 34.653125 26.336375 4.158375
696 1 37.425375 23.564125 4.158375
697 2 38.8115 22.178 0.0
698 2 38.8115 24.95025 2.77225
699 2 41.58375 22.178 2.77225
700 2 41.58375 24.95025 0.0
701 2 40.197625 23.564125 1.386125
702 2 42.969875 26.336375 1.386125
703 2 40.197625 26.336375 4.158375
704 2 42.969875 23.564125 4.158375
705 1 44.356 22.178 0.0
706 1 44.356 24.95025 2.77225
707 1 47.12825 22.178 2.77225
708 1 47.12825 24.95025 0.0
709 1 45.742125 23.564125 1.386125
710 1 48.514375 26.336375 1.386125
711 1 45.742125 26.336375 4.158375
712 1 48.514375 23.564125 4.158375
713 2 49.9005 22.178 0.0
714 2 49.9005 24.95025 2.77225
715 2 52.67275 22.178 2.77225
716 2 52.67275 24.95025 0.0
717 2 51.286625 23.564125 1.386125
718 2 54.058875 26.336375 1.386125
719 2 51.286625 26.336375 4.158375
720 2 54.058875 23.564125 4.158375
721 1 55.445 22.178 0.0
722 1 55.445 24.95025 2.77225
723 1 58.21725 22.178 2.77225
724 1 58.21725 24.95025 0.0
725 1 56.831125 23.564125 1.386125
726 1 59.603375 26.336375 1.386125
727 1 56.831125 26.336375 4.158375
728 1 59.603375 23.564125 4.158375
729 2 60.9895 22.178 0.0
730 2 60.9895 24.95025 2.77225
731 2 63.76175 22.178 2.77225
732 2 63.76175 24.95025 0.0
733 2 62.375625 23.564125 1.386125
734 2 65.147875 26.336375 1.386125
735 2 62.375625 26.336375 4.158375
736 2 65.147875 23.564125 4.158375
737 1 66.534 22.178 0.0
738 1 66.534 24.95025 2.77225
739 1 69.30625 22.178 2.77225
740 1 69.30625 24.95025 0.0
741 1 67.920125 23.564125 1.386125
742 1 70.692375 26.336375 1.386125
743 1 67.920125 26.336375 4.158375
744 1 70.692375 23.564125 4.158375
745 2 72.0785 22.178 0.0
746 2 72.0785 24.95025 2.77225
747 2 74.85075 22.178 2.77225
748 2 74.85075 24.95025 0.0
749 2 73.464625 23.564125 1.386125
750 2 76.236875 26.336375 1.386125
751 2 73.464625 26.336375 4.158375
752 2 76.236875 23.564125 4.158375
753 1 77.623 22.178 0.0
754 1 77.623 24.95025 2.77225
755 1 80.39525 22.178 2.77225
756 1 80.39525 24.95025 0.0
757 1 79.009125 23.564125 1.386125
758 1 81.781375 26.336375 1.386125
759 1 79.009125 26.336375 4.158375
760 1 81.781375 23.564125 4.158375
761 2 83.1675 22.178 0.0
762 2 83.1675 24.95025 2.77225
763 2 85.93975 22.178 2.77225
764 2 85.93975 24.95025 0.0
765 2 84.553625 23.564125 1.386125
766 2 87.325875 26.336375 1.386125
767 2 84.553625 26.336375 4.158375
768 2 87.325875 23.564125 4.158375
769 1 88.712 22.178 0.0
770 1 88.712 24.95025 2.77225
771 1 91.48425 22.178 2.77225
772 1 91.48425 24.95025 0.0
773 1 90.09812500000001 23.564125 1.386125
774 1 92.87037500000001 26.336375 1.386125
775 1 90.09812500000001 26.336375 4.158375
776 1 92.87037500000001 23.564125 4.158375
777 2 94.2565 22.178 0.0
778 2 94.2565 24.95025 2.77225
779 2 97.02875 22.178 2.77225
780 2 97.02875 24.95025 0.0
781 2 95.64262500000001 23.564125 1.386125
782 2 98.41487500000001 26.336375 1.386125
783 2 95.64262500000001 26.336375 4.158375
784 2 98.41487500000001 23.564125 4.158375
785 1 99.801 22.178 0.0
786 1 99.801 24.95025 2.77225
787 1 102.57325 22.178 2.77225
788 1 102.57325 24.95025 0.0
789 1 101.18712500000001 23.564125 1.386125
790 1 103.95937500000001 26.336375 1.386125
791 1 101.18712500000001 26.336375 4.158375
792 1 103.95937500000001 23.564125 4.158375
793 2 105.3455 22.178 0.0
794 2 105.3455 24.95025 2.77225
795 2 108.11775 22.178 2.77225
796 2 108.11775 24.95025 0.0
797 2 106.73162500000001 23.564125 1.386125
798 2 109.50387500000001 26.336375 1.386125
799 2 106.73162500000001 26.336375 4.158375
800 2 109.50387500000001 23.564125 4.158375
801 1 0.0 27.7225 0.0
802 1 0.0 30.49475 2.77225
803 1 2.77225 27.7225 2.77225
804 1 2.77225 30.49475 0.0
805 1 1.386125 29.108625 1.386125
806 1 4.158375 31.880875 1.386125
807 1 1.386125 31.880875 4.158375
808 1 4.158375 29.108625 4.158375
809 2 5.5445 27.7225 0.0
810 2 5.5445 30.49475 2.77225
811 2 8.31675 27.7225 2.77225
812 2 8.31675 30.49475 0.0
813 2 6.930625 29.108625 1.386125
814 2 9.702875 31.880875 1.386125
815 2 6.930625 31.880875 4.158375
816 2 9.702875 29.108625 4.158375
817 1 11.089 27.7225 0.0
818 1 11.089 30.49475 2.77225
819 1 13.86125 27.7225 2.77225
820 1 13.86125 30.49475 0.0
821 1 12.475125 29.108625 1.386125
822 1 15.247375 31.880875 1.386125
823 1 12.475125 31.880875 4.158375
824 1 15.247375 29.108625 4.158375
825 2 16.6335 27.7225 0.0
826 2 16.6335 30.49475 2.77225
827 2 19.40575 27.7225 2.77225
828 2 19.40575 30.49475 0.0
829 2 18.019625 29.108625 1.386125
830 2 20.791875 31.880875 1.386125
831 2 18.019625 31.880875 4.158375
832 2 20.791875 29.108625 4.158375
833 1 22.178 27.7225 0.0
834 1 22.178 30.49475 2.77225
835 1 24.95025 27.7225 2.77225
836 1 24.95025 30.49475 0.0
837 1 23.564125 29.108625 1.386125
838 1 26.336375 31.880875 1.386125
839 1 23.564125 31.880875 4.158375
840 1 26.336375 29.108625 4.158375
841 2 27.7225 27.7225 0.0
842 2 27.7225 30.49475 2.77225
843 2 30.49475 27.7225 2.77225
844 2 30.49475 30.49475 0.0
845 2 29.108625 29.108625 1.386125
846 2 31.880875 31.880875 1.386125
847 2 29.108625 31.880875 4.158375
848 2 31.880875 29.108625 4.158375
849 1 33.267 27.7225 0.0
850 1 33.267 30.49475 2.77225
851 1 36.03925 27.7225 2.77225
852 1 36.03925 30.49475 0.0
853 1 34.653125 29.108625 1.386125
854 1 37.425375 31.880875 1.386125
855 1 34.653125 31.880875 4.158375
856 1 37.425375 29.108625 4.158375
857 2 38.8115 27.7225 0.0
858 2 38.8115 30.49475 2.77225
859 2 41.58375 27.7225 2.77225
860 2 41.58375 30.49475 0.0
861 2 40.197625 29.108625 1.386125
862 2 42.969875 31.880875 1.386125
863 2 40.197625 31.880875 4.158375
864 2 42.969875 29.108625 4.158375
865 1 44.356 27.7225 0.0
866 1 44.356 30.49475 2.77225
867 1 47.12825 27.7225 2.77225
868 1 47.12825 30.49475 0.0
869 1 45.742125 29.108625 1.386125
870 1 48.514375 31.880875 1.386125
871 1 45.742125 31.880875 4.158375
872 1 48.514375 29.108625 4.158375
873 2 49.9005 27.7225 0.0
874 2 49.9005 30.49475 2.77225
875 2 52.67275 27.7225 2.77225
876 2 52.67275 30.49475 0.0
877 2 51.286625 29.108625 1.386125
878 2 54.058875 31.880875 1.386125
879 2 51.286625 31.880875 4.158375
880 2 54.058875 29.108625 4.158375
881 1 55.445 27.7225 0.0
882 1 55.445 30.49475 2.77225
883 1 58.21725 27.7225 2.77225
884 1 58.21725 30.49475 0.0
885 1 56.831125 29.108625 1.386125
886 1 59.603375 31.880875 1.386125
887 1 56.831125 31.880875 4.158375
888 1 59.603375 29.108625 4.158375
889 2 60.9895 27.7225 0.0
890 2 60.9895 30.49475 2.77225
891 2 63.76175 27.7225 2.77225
892 2 63.76175 30.49475 0.0
893 2 62.375625 29.108625 1.386125
894 2 65.147875 31.880875 1.386125
895 2 62.375625 31.880875 4.158375
896 2 65.147875 29.108625 4.158375
897 1 66.534 27.7225 0.0
898 1 66.534 30.49475 2.77225
899 1 69.30625 27.7225 2.77225
900 1 69.30625 30.49475 0.0
901 1 67.920125 29.108625 1.386125
902 1 70.692375 31.880875 1.386125
903 1 67.920125 31.880875 4.158375
904 1 70.692375 29.108625 4.158375
905 2 72.0785 27.7225 0.0
906 2 72.0785 30.49475 2.77225
907 2 74.85075 27.7225 2.77225
908 2 74.85075 30.49475 0.0
909 2 73.464625 29.108625 1.386125
910 2 76.236875 31.880875 1.386125
911 2 73.464625 31.880875 4.158375
912 2 76.236875 29.108625 4.158375
913 1 77.623 27.7225 0.0
914 1 77.623 30.49475 2.77225
915 1 80.39525 27.7225 2.77225
916 1 80.39525 30.49475 0.0
917 1 79.009125 29.108625 1.386125
918 1 81.781375 31.880875 1.386125
919 1 79.009125 31.880875 4.158375
920 1 81.781375 29.108625 4.158375
921 2 83.1675 27.7225 0.0
922 2 83.1675 30.49475 2.77225
923 2 85.93975 27.7225 2.77225
924 2 85.93975 30.49475 0.0
925 2 84.553625 29.108625 1.386125
926 2 87.325875 31.880875 1.386125
927 2 84.553625 31.880875 4.158375
928 2 87.325875 29.108625 4.158375
929 1 88.712 27.7225 0.0
930 1 88.712 30.49475 2.77225
931 1 91.48425 27.7225 2.77225
932 1 91.48425 30.49475 0.0
933 1 90.09812500000001 29.108625 1.386125
934 1 92.87037500000001 31.880875 1.386125
935 1 90.09812500000001 31.880875 4.158375