LAMMPS (16 Mar 2018)
atom_style	atomic
units		metal
dimension	3
boundary	p p p
processors	* * *

# ---------------------------------------------------------
read_data       data.relax
  orthogonal box = (-0.693063 -0.693063 -0.693063) to (110.197 54.7519 54.7519)
  4 by 2 by 2 MPI processor grid
  reading atoms ...
  16000 atoms
pair_style	tersoff
pair_coeff	* * SiCGe.tersoff Si(D) Ge

#--------------- Simulation control parameters ----------------------------------------------------------
variable	Tlo equal 750
variable	T equal 300    	          				# Kelvin
variable	Thi equal 750
variable	V equal vol             				# A^3
variable	dt equal 0.0005          				# 0.5fs; in picoseconds = 1e-12 s
variable	NRUNNVT equal 50000 #1000000
variable        NRUNNPT equal 50000
variable	NRUNanneal equal 100000 #500000
variable	NRUNNVE equal 50000
variable	thermocalc equal 1000
variable	snapprint equal 1000
variable        Lx equal xhi-xlo
variable        Ly equal yhi-ylo
print           "Lx = ${Lx} A"
Lx = 110.89 A
print           "Ly = ${Ly} A"
Ly = 55.445 A
timestep  	${dt}
timestep  	0.0005

# -------------- Print structure -----------------------
dump		snapxyz all custom 100 sisnap.lammpstrj id type x y z

# -------------- Relax Structure at 0K --------------------------
thermo_style    custom step temp pe etotal press pxx pyy pzz lx ly lz fmax fnorm
thermo		1000
fix		filmrelax all box/relax x 0 y 0 z 0 couple none		#Try different methods to relax different systems
minimize	0.0 1e-11 100000 10000000
WARNING: Using 'neigh_modify every 1 delay 0 check yes' setting during minimization (../min.cpp:168)
Neighbor list info ...
  update every 1 steps, delay 0 steps, check yes
  max neighbors/atom: 2000, page size: 100000
  master list distance cutoff = 5.1
  ghost atom cutoff = 5.1
  binsize = 2.55, bins = 44 22 22
  1 neighbor lists, perpetual/occasional/extra = 1 0 0
  (1) pair tersoff, perpetual
      attributes: full, newton on
      pair build: full/bin/atomonly
      stencil: full/bin/3d
      bin: standard
Per MPI rank memory allocation (min/avg/max) = 5.197 | 5.197 | 5.198 Mbytes
Step Temp PotEng TotEng Press Pxx Pyy Pzz Lx Ly Lz Fmax Fnorm 
       0            0   -67551.714   -67551.714    -598.0454    -598.0454    -598.0454    -598.0454       110.89       55.445       55.445   0.51399538    45.227633 
    1000            0   -67615.744   -67615.744   -22.964345   0.98019918   -34.936614    -34.93662    110.75668    55.448431    55.448431    0.3729879    33.706128 
    2000            0    -67638.12    -67638.12   -59.140473   -13.195267   -82.113078   -82.113075    110.71004    55.457721    55.457721    0.3237568    29.583727 
    3000            0   -67658.845   -67658.845    208.28648    200.73121    212.06411    212.06411    110.65748    55.459294    55.459294   0.27449857    25.391099 
    4000            0   -67665.418   -67665.418    32.154026   -2.9531216    49.707599    49.707599     110.6518     55.46551     55.46551    0.2576948    23.925591 
    5000            0   -67673.834   -67673.834    49.011366   -37.775152    92.404627    92.404623    110.63459    55.468251    55.468251   0.23505651    21.925111 
    6000            0   -67682.854   -67682.854    39.473976   -1.4753231    59.948626    59.948626    110.60119    55.475928    55.475928   0.20912804    19.590966 
    7000            0   -67693.443   -67693.443    51.632757    48.343942    53.277165    53.277165    110.55801    55.485423    55.485423   0.17472002    16.440335 
    8000            0   -67718.736   -67718.736 2.2065795e-09 6.0504367e-09 3.7817904e-09 -3.2124887e-09    110.35841    55.540157    55.540157 1.0094009e-12 4.1437133e-11 
    9000            0   -67718.736   -67718.736 -9.4419914e-10 -7.159077e-10 -1.2103014e-09 -9.0638837e-10    110.35841    55.540157    55.540157 2.3121227e-12 9.2631046e-11 
   10000            0   -67718.736   -67718.736 9.0745849e-10 1.4029223e-09 1.3879406e-09 -6.8487433e-11    110.35841    55.540157    55.540157 2.8616554e-12  9.46793e-11 
   11000            0   -67718.736   -67718.736 1.0123299e-09 5.0509482e-10 1.7592709e-09 7.7262385e-10    110.35841    55.540157    55.540157 2.0137503e-12 7.8888144e-11 
   12000            0   -67718.736   -67718.736 7.7048362e-11 -9.3207116e-10 9.2886081e-10 2.3435543e-10    110.35841    55.540157    55.540157 1.9089313e-12 6.5423891e-11 
   13000            0   -67718.736   -67718.736 2.6175041e-09 4.2644128e-09 2.358536e-09 1.2295634e-09    110.35841    55.540157    55.540157 1.8687274e-12 6.7921893e-11 
   14000            0   -67718.736   -67718.736 1.1336097e-09 2.2750669e-09 8.8498605e-10 2.4077613e-10    110.35841    55.540157    55.540157 2.6318808e-12 8.9455088e-11 
   15000            0   -67718.736   -67718.736 7.5264835e-10 -4.533012e-09 7.2981921e-10 6.0611378e-09    110.35841    55.540157    55.540157 2.601655e-12 9.2615191e-11 
   16000            0   -67718.736   -67718.736 2.2850547e-09 9.3849186e-10 5.0423873e-09 8.7428489e-10    110.35841    55.540157    55.540157 2.6912778e-12 1.0001055e-10 
   17000            0   -67718.736   -67718.736 -8.5288256e-10 -1.0155402e-09 -1.115061e-09 -4.2804646e-10    110.35841    55.540157    55.540157 2.3076818e-12 7.9424305e-11 
   18000            0   -67718.736   -67718.736 -3.8702534e-10 -8.7428489e-10 -1.0701161e-10 -1.7977951e-10    110.35841    55.540157    55.540157 1.6235763e-12 6.501271e-11 
   19000            0   -67718.736   -67718.736 7.5086483e-10 2.0021873e-09 -1.7763928e-10 4.2804646e-10    110.35841    55.540157    55.540157 2.3221008e-12 8.2027947e-11 
   20000            0   -67718.736   -67718.736 7.8118478e-10 1.3237337e-09 5.6716155e-10 4.5265913e-10    110.35841    55.540157    55.540157 2.2675195e-12 9.1479485e-11 
   21000            0   -67718.736   -67718.736 -8.0569044e-09 -1.1729543e-08 -3.0059562e-09 -9.435214e-09    110.35841    55.540157    55.540157 2.4279329e-12 1.0029337e-10 
   22000            0   -67718.736   -67718.736 2.693839e-09 1.4061326e-09 -4.7192122e-10 7.1473057e-09    110.35841    55.540157    55.540157 2.1753849e-12 7.9556104e-11 
   23000            0   -67718.736   -67718.736 -3.517115e-10 -4.1948553e-10 -2.0974276e-10 -4.2590622e-10    110.35841    55.540157    55.540157 1.7364304e-12 5.3691346e-11 
   24000            0   -67718.736   -67718.736 -7.0377972e-10 -2.2397531e-09 7.2553874e-10 -5.9712481e-10    110.35841    55.540157    55.540157 2.1443403e-12 7.635536e-11 
   25000            0   -67718.736   -67718.736 1.1485913e-09 2.3200118e-09 1.7186065e-09 -5.9284434e-10    110.35841    55.540157    55.540157 1.2681661e-12 5.4519538e-11 
   26000            0   -67718.736   -67718.736 3.3887011e-11 6.4206968e-10 -1.0144701e-09 4.7406145e-10    110.35841    55.540157    55.540157 2.371936e-12 7.928419e-11 
   27000            0   -67718.736   -67718.736 -1.6301436e-10 5.1151552e-10 -6.5705131e-10 -3.4350728e-10    110.35841    55.540157    55.540157 1.5836221e-12 6.1488067e-11 
   28000            0   -67718.736   -67718.736 -2.4291636e-10 -6.0889608e-10 -3.2103484e-12 -1.1664266e-10    110.35841    55.540157    55.540157 2.7151614e-12 1.0751423e-10 
   29000            0   -67718.736   -67718.736 -8.289833e-10 1.5441776e-09 -7.4148347e-09 3.3837072e-09    110.35841    55.540157    55.540157 1.8279545e-12 6.8437341e-11 
   30000            0   -67718.736   -67718.736 -4.0129355e-10 2.0332207e-10 -3.1461415e-10 -1.0925886e-09    110.35841    55.540157    55.540157 1.7751911e-12 6.5655557e-11 
   31000            0   -67718.736   -67718.736 3.0855015e-10 -7.9723652e-10 1.0979392e-09 6.2494783e-10    110.35841    55.540157    55.540157 1.8194474e-12 6.6907664e-11 
   32000            0   -67718.736   -67718.736 1.7514234e-10 -2.1541438e-09 2.0899368e-09 5.8963399e-10    110.35841    55.540157    55.540157 2.3102908e-12 8.4303366e-11 
   33000            0   -67718.736   -67718.736 5.6930179e-10 1.9583125e-10 7.1697781e-10 7.9509629e-10    110.35841    55.540157    55.540157 2.3728658e-12 7.1023978e-11 
   34000            0   -67718.736   -67718.736 2.7202352e-09 9.5561371e-10 3.7860709e-09 3.4190211e-09    110.35841    55.540157    55.540157 2.2297164e-12 9.4762284e-11 
   35000            0   -67718.736   -67718.736 -5.6823167e-10 -9.2565046e-10 1.1129208e-10 -8.9033663e-10    110.35841    55.540157    55.540157 2.7653713e-12 8.2443646e-11 
   36000            0   -67718.736   -67718.736 -8.7713853e-10 -1.2317037e-09 -7.1269735e-10 -6.8701456e-10    110.35841    55.540157    55.540157 2.2977176e-12 8.9416442e-11 
   37000            0   -67718.736   -67718.736 6.9878584e-10 1.7656916e-10 1.6651007e-09 2.5468764e-10    110.35841    55.540157    55.540157 2.8018698e-12 9.2018765e-11 
   38000            0   -67718.736   -67718.736 -3.0319957e-09 -6.7235397e-09 -9.5989418e-10 -1.4125533e-09    110.35841    55.540157    55.540157 2.4292096e-12 8.771992e-11 
   39000            0   -67718.736   -67718.736 4.4766525e-10 8.7000442e-10 1.3162429e-10 3.4136705e-10    110.35841    55.540157    55.540157 2.0534685e-12 7.5601801e-11 
   40000            0   -67718.736   -67718.736 -2.2130002e-09 -1.962593e-09 -1.0455035e-09 -3.6309041e-09    110.35841    55.540157    55.540157 2.5004027e-12 8.1099897e-11 
   41000            0   -67718.736   -67718.736 6.3529228e-10 7.3838014e-10 6.2066736e-10 5.4682935e-10    110.35841    55.540157    55.540157 2.0235202e-12 7.3782094e-11 
   42000            0   -67718.736   -67718.736 9.1245236e-10 1.8898251e-09 3.2745554e-10 5.2007644e-10    110.35841    55.540157    55.540157 1.807457e-12 7.2598603e-11 
   43000            0   -67718.736   -67718.736 3.1425744e-10 1.962593e-09 -4.3339704e-10 -5.8642365e-10    110.35841    55.540157    55.540157 2.136083e-12 7.7922042e-11 
   44000            0   -67718.736   -67718.736 9.349248e-10 -4.1199471e-10 8.4646187e-09 -5.2478496e-09    110.35841    55.540157    55.540157 1.8304525e-12 7.1827936e-11 
   45000            0   -67718.736   -67718.736 -6.1353325e-11 4.505189e-10 -5.1258563e-10 -1.2199324e-10    110.35841    55.540157    55.540157 2.110756e-12 8.0441039e-11 
   46000            0   -67718.736   -67718.736 5.2435691e-10 1.1022196e-10 1.7549905e-10 1.2873497e-09    110.35841    55.540157    55.540157 1.7550406e-12 6.6968075e-11 
   47000            0   -67718.736   -67718.736 2.318585e-10 2.3018198e-09 -3.1354403e-10 -1.2927003e-09    110.35841    55.540157    55.540157 1.3416768e-12 5.3235188e-11 
   48000            0   -67718.736   -67718.736 -1.0850978e-09 -5.4693636e-09 2.2451037e-09 -3.1033368e-11    110.35841    55.540157    55.540157 2.3993585e-12 8.4513765e-11 
   49000            0   -67718.736   -67718.736 2.0396414e-09 3.4661062e-09 8.6786419e-10 1.7849537e-09    110.35841    55.540157    55.540157 2.3461927e-12 9.8473584e-11 
   50000            0   -67718.736   -67718.736 1.0701161e-10 3.7454065e-10 2.9000147e-10 -3.4350728e-10    110.35841    55.540157    55.540157 2.2852831e-12 7.8532303e-11 
   51000            0   -67718.736   -67718.736 -1.526699e-09 -4.6507247e-09 -1.2905601e-09 1.3611877e-09    110.35841    55.540157    55.540157 2.9922731e-12 8.830631e-11 
   52000            0   -67718.736   -67718.736 -2.322152e-10 -7.1911805e-10 -1.2092312e-10 1.4339556e-10    110.35841    55.540157    55.540157 2.2341573e-12 7.2647408e-11 
   53000            0   -67718.736   -67718.736 4.5059024e-09 -2.6314156e-09 5.4736441e-09 1.0675479e-08    110.35841    55.540157    55.540157 1.728534e-12 7.1725522e-11 
   54000            0   -67718.736   -67718.736 -2.8600637e-09 1.1897551e-08 -5.3826842e-09 -1.5095058e-08    110.35841    55.540157    55.540157 1.4460239e-12 5.5613091e-11 
   55000            0   -67718.736   -67718.736 -1.0986526e-09 -9.4384244e-10 -1.4960224e-09 -8.5609291e-10    110.35841    55.540157    55.540157 3.622283e-12 1.0512337e-10 
   56000            0   -67718.736   -67718.736 4.2019894e-10 1.2156519e-09 1.6672409e-09 -1.6222961e-09    110.35841    55.540157    55.540157 3.3247988e-12 1.1471383e-10 
   57000            0   -67718.736   -67718.736 7.8189819e-10 -2.6110834e-10 5.5217993e-10 2.054623e-09    110.35841    55.540157    55.540157 2.543743e-12 8.7690832e-11 
   58000            0   -67718.736   -67718.736 1.8734167e-09 9.8579099e-09 -1.059308e-08 6.3554198e-09    110.35841    55.540157    55.540157 1.7896795e-12 7.2625068e-11 
   59000            0   -67718.736   -67718.736 -3.8880886e-11 1.6158754e-10 -2.3114509e-10 -4.708511e-11    110.35841    55.540157    55.540157  2.08078e-12 6.7152584e-11 
   60000            0   -67718.736   -67718.736 -6.499172e-10 -1.271298e-09 -1.1557254e-10 -5.6288109e-10    110.35841    55.540157    55.540157 2.2682134e-12 8.1658265e-11 
   61000            0   -67718.736   -67718.736 9.3991868e-10 1.3686785e-09 2.2044393e-10 1.2306336e-09    110.35841    55.540157    55.540157 2.1396496e-12 7.9443726e-11 
   62000            0   -67718.736   -67718.736 -1.5463178e-09 -3.4307923e-09 -5.3077761e-10 -6.7738352e-10    110.35841    55.540157    55.540157 1.5788204e-12 5.5110523e-11 
   63000            0   -67718.736   -67718.736 4.6835416e-10 2.9000147e-10 -2.2900485e-10 1.3440659e-09    110.35841    55.540157    55.540157 3.2325254e-12 1.072251e-10 
   64000            0   -67718.736   -67718.736 4.505189e-10 8.486021e-10 4.2376599e-10 7.9188594e-11    110.35841    55.540157    55.540157 2.9507785e-12 1.0292352e-10 
   65000            0   -67718.736   -67718.736 1.3276574e-09 2.2686462e-09 7.3945025e-10 9.748758e-10    110.35841    55.540157    55.540157 2.1147528e-12 7.9783635e-11 
   66000            0   -67718.736   -67718.736 1.1778412e-09  4.42279e-09 -1.1450243e-09 2.5575776e-10    110.35841    55.540157    55.540157 3.9503401e-12 1.2295635e-10 
   67000            0   -67718.736   -67718.736 3.5955902e-10 -2.1295311e-10 1.0283816e-09 2.6324857e-10    110.35841    55.540157    55.540157 2.2602475e-12 7.5081617e-11 
   68000            0   -67718.736   -67718.736 -4.8083885e-10 -1.4232545e-09 2.6752904e-10 -2.8679113e-10    110.35841    55.540157    55.540157 2.1448121e-12 9.2353901e-11 
   69000            0   -67718.736   -67718.736 1.2174355e-09 1.6736616e-09 1.2509658e-09 7.2767898e-10    110.35841    55.540157    55.540157 2.6068037e-12 8.4460247e-11 
   70000            0   -67718.736   -67718.736 -2.0153854e-10 -5.2649714e-10 -8.0044687e-10 7.223284e-10    110.35841    55.540157    55.540157 2.3386154e-12 8.8408164e-11 
   71000            0   -67718.736   -67718.736 -3.3672988e-10 -2.9000147e-10 -1.4564281e-09 7.362399e-10    110.35841    55.540157    55.540157 2.1441876e-12 7.0974194e-11 
   72000            0   -67718.736   -67718.736 -7.2981921e-10 -9.8664708e-10 -3.7668088e-10 -8.2612966e-10    110.35841    55.540157    55.540157 1.9770852e-12 8.2363831e-11 
   73000            0   -67718.736   -67718.736 -7.7975796e-10 -1.8791239e-09 2.8893136e-11 -4.8904308e-10    110.35841    55.540157    55.540157 2.2373214e-12 7.748917e-11 
   74000            0   -67718.736   -67718.736 9.4598267e-10 1.2317037e-09 8.7749524e-10 7.2874909e-10    110.35841    55.540157    55.540157 2.8117925e-12 1.0714078e-10 
   75000            0   -67718.736   -67718.736 5.236435e-10 -2.1402323e-10 1.4596384e-09 3.2531531e-10    110.35841    55.540157    55.540157 2.3318292e-12 7.7783298e-11 
   76000            0   -67718.736   -67718.736 -2.3578226e-10 -2.3007497e-09 2.5896811e-10 1.3344348e-09    110.35841    55.540157    55.540157 3.2621961e-12 1.1355538e-10 
   77000            0   -67718.736   -67718.736 -5.7393896e-10 4.0985448e-10 -1.3868705e-09 -7.4480083e-10    110.35841    55.540157    55.540157 1.9694246e-12 7.860802e-11 
   78000            0   -67718.736   -67718.736 6.1852713e-10 1.1535852e-09 8.0258711e-11 6.2173748e-10    110.35841    55.540157    55.540157 1.9363816e-12 7.3942167e-11 
   79000            0   -67718.736   -67718.736 4.4766525e-10 9.0317802e-10 1.8191974e-10 2.5789799e-10    110.35841    55.540157    55.540157 3.0474928e-12 1.1057166e-10 
   80000            0   -67718.736   -67718.736 2.4013406e-09 -5.2082553e-09 1.0658357e-08 1.7539204e-09    110.35841    55.540157    55.540157 2.1871116e-12 6.755149e-11 
   81000            0   -67718.736   -67718.736 -6.3900202e-09 -3.1707541e-09 -7.0338734e-09 -8.965433e-09    110.35841    55.540157    55.540157 2.9976022e-12 9.9728354e-11 
   82000            0   -67718.736   -67718.736 -6.895115e-10 -2.0300103e-09 2.2472439e-10 -2.6324857e-10    110.35841    55.540157    55.540157 3.5137449e-12 1.1472575e-10 
   83000            0   -67718.736   -67718.736 -3.381567e-10 -8.4753198e-10 2.3328532e-10 -4.0022344e-10    110.35841    55.540157    55.540157 2.5723867e-12 8.6899084e-11 
   84000            0   -67718.736   -67718.736 -1.0665491e-10 -2.1402323e-09 1.0990093e-09 7.2125828e-10    110.35841    55.540157    55.540157 2.3812341e-12 7.114393e-11 
   85000            0   -67718.736   -67718.736 -4.4088785e-10 -1.0786771e-09 -4.708511e-11 -1.9690137e-10    110.35841    55.540157    55.540157 2.7453595e-12 9.4306672e-11 
   86000            0   -67718.736   -67718.736 2.782302e-10 2.893594e-09 -5.3291784e-10 -1.5259856e-09    110.35841    55.540157    55.540157 2.4030083e-12 8.4265126e-11 
   87000            0   -67718.736   -67718.736 6.3707581e-10 9.4491255e-10 5.3077761e-10 4.3553727e-10    110.35841    55.540157    55.540157 2.4884539e-12 8.7366811e-11 
   88000            0   -67718.736   -67718.736 -9.7416239e-10 -1.0123299e-09 -5.1258563e-10 -1.3975717e-09    110.35841    55.540157    55.540157 1.6102675e-12 6.166776e-11 
   89000            0   -67718.736   -67718.736 -1.099366e-09 4.4302808e-10 -1.9839953e-09 -1.7571307e-09    110.35841    55.540157    55.540157  2.39464e-12 1.1106408e-10 
   90000            0   -67718.736   -67718.736 -1.6408447e-11 -1.0101896e-09 3.6383949e-10 5.9712481e-10    110.35841    55.540157    55.540157 2.7289004e-12 9.5781087e-11 
   91000            0   -67718.736   -67718.736 3.6169926e-10 6.9878584e-10 5.2542703e-10 -1.391151e-10    110.35841    55.540157    55.540157 2.3404056e-12 8.236255e-11 
   92000            0   -67718.736   -67718.736 -3.2638542e-09 -3.8748905e-09 -3.4489843e-09 -2.4676878e-09    110.35841    55.540157    55.540157 2.342071e-12 8.5290452e-11 
   93000            0   -67718.736   -67718.736 -3.2852566e-10 -3.4885786e-10 -1.0208908e-09 3.8417169e-10    110.35841    55.540157    55.540157 3.3675146e-12 9.3203043e-11 
   94000            0   -67718.736   -67718.736 -3.8916557e-10 -1.8727032e-10 -7.1697781e-10 -2.6324857e-10    110.35841    55.540157    55.540157 2.1935787e-12 7.7629521e-11 
   95000            0   -67718.736   -67718.736 -1.5138576e-09 -2.9920447e-09 2.6966927e-10 -1.8191974e-09    110.35841    55.540157    55.540157 2.4732022e-12 9.0648371e-11 
   96000            0   -67718.736   -67718.736 -1.0223176e-09 -1.1910393e-09 -1.1075702e-09 -7.6834339e-10    110.35841    55.540157    55.540157 2.590525e-12 1.012942e-10 
   97000            0   -67718.736   -67718.736 5.0081435e-10 1.0786771e-09 -1.7121858e-11 4.4088785e-10    110.35841    55.540157    55.540157 2.7284841e-12 9.7617818e-11 
   98000            0   -67718.736   -67718.736 3.5349503e-10 1.0401529e-09 -1.4660591e-10 1.6693812e-10    110.35841    55.540157    55.540157 2.8546471e-12 1.0802218e-10 
   99000            0   -67718.736   -67718.736 -3.0926356e-10 -2.3114509e-10 -1.391151e-11 -6.827341e-10    110.35841    55.540157    55.540157 2.4101832e-12 7.4830107e-11 
  100000            0   -67718.736   -67718.736 1.5584458e-09 2.8368779e-09 8.4539175e-10 9.9306778e-10    110.35841    55.540157    55.540157 2.5801583e-12 8.5986756e-11 
Loop time of 705.395 on 16 procs for 100000 steps with 16000 atoms

100.0% CPU use with 16 MPI tasks x no OpenMP threads

Minimization stats:
  Stopping criterion = max iterations
  Energy initial, next-to-last, final = 
        -67551.7140998     -67718.7360007     -67718.7360007
  Force two-norm initial, final = 224.988 6.71383e-10
  Force max component initial, final = 127.245 6.05671e-10
  Final line search alpha, max atom move = 1 6.05671e-10
  Iterations, force evaluations = 100000 194776

MPI task timing breakdown:
Section |  min time  |  avg time  |  max time  |%varavg| %total
---------------------------------------------------------------
Pair    | 605.08     | 632.25     | 666.87     |  70.2 | 89.63
Neigh   | 0          | 0          | 0          |   0.0 |  0.00
Comm    | 19.561     | 54.078     | 81.216     | 239.6 |  7.67
Output  | 1.6588     | 1.8903     | 2.112      |  10.2 |  0.27
Modify  | 0          | 0          | 0          |   0.0 |  0.00
Other   |            | 17.18      |            |       |  2.43

Nlocal:    1000 ave 1000 max 1000 min
Histogram: 16 0 0 0 0 0 0 0 0 0
Nghost:    1744 ave 1744 max 1744 min
Histogram: 16 0 0 0 0 0 0 0 0 0
Neighs:    0 ave 0 max 0 min
Histogram: 16 0 0 0 0 0 0 0 0 0
FullNghs:  28000 ave 28000 max 28000 min
Histogram: 16 0 0 0 0 0 0 0 0 0

Total # of neighbors = 448000
Ave neighs/atom = 28
Neighbor list builds = 0
Dangerous builds = 0
min_style	sd
min_modify	dmax 0.2
write_restart	restart.min.*

# -------------- NVT Thermalization -----------------------------
thermo_style    custom step temp pe etotal press pxx pyy pzz lx ly lz
dump_modify     snapxyz every ${snapprint}
dump_modify     snapxyz every 1000
restart		500000 restart
thermo          ${thermocalc}
thermo          1000
velocity	all create ${Tlo} ${SEED} mom yes rot yes dist gaussian
velocity	all create 750 ${SEED} mom yes rot yes dist gaussian
velocity	all create 750 1164 mom yes rot yes dist gaussian
fix		NVT all nvt temp ${Tlo} ${Thi} 0.05 tchain 10
fix		NVT all nvt temp 750 ${Thi} 0.05 tchain 10
fix		NVT all nvt temp 750 750 0.05 tchain 10
run		${NRUNNVT}
run		50000
Per MPI rank memory allocation (min/avg/max) = 4.072 | 4.072 | 4.073 Mbytes
Step Temp PotEng TotEng Press Pxx Pyy Pzz Lx Ly Lz 
  100000          750   -67718.736   -66167.711    4866.5167    4903.8016    4758.8367    4936.9117    110.35841    55.540157    55.540157 
  101000    558.05027   -66561.166     -65407.1     10240.84    10407.165    10102.313    10213.042    110.35841    55.540157    55.540157 
  102000    705.09075   -66203.499   -64745.348    13295.081    13905.101    13089.551    12890.592    110.35841    55.540157    55.540157 
  103000    736.23071    -66094.56    -64572.01    14051.363    14492.514    13822.074    13839.501    110.35841    55.540157    55.540157 
  104000    754.88304   -66137.374   -64576.251     14004.04    14452.998    13808.225    13750.896    110.35841    55.540157    55.540157 
  105000    747.66907   -66116.876   -64570.672    13950.394    14482.482    13584.833    13783.866    110.35841    55.540157    55.540157 
  106000    754.10773   -66128.668   -64569.148    13985.839    14224.111    13819.018    13914.387    110.35841    55.540157    55.540157 
  107000    747.13726   -66136.138   -64591.034    13964.504    14456.626     13704.26    13732.624    110.35841    55.540157    55.540157 
  108000    750.54983   -66115.458   -64563.296    14052.307     14176.25    14082.674    13897.998    110.35841    55.540157    55.540157 
  109000     752.5684   -66147.583   -64591.247    13896.454    14375.815    13756.837    13556.711    110.35841    55.540157    55.540157 
  110000    752.88343   -66121.871   -64564.883    14083.547    14472.966    13883.747    13893.927    110.35841    55.540157    55.540157 
  111000    752.49004   -66125.814    -64569.64    14152.184    14600.542    14075.273    13780.737    110.35841    55.540157    55.540157 
  112000     743.0093   -66133.529   -64596.961    13996.877     14427.62    13763.184    13799.828    110.35841    55.540157    55.540157 
  113000    748.70433   -66118.604   -64570.259    14172.395    14535.665    14014.296    13967.224    110.35841    55.540157    55.540157 
  114000    752.41346    -66118.48   -64562.464     14023.04    14507.822     13838.67    13722.628    110.35841    55.540157    55.540157 
  115000    750.43606   -66132.741   -64580.815    13947.569     14175.29    13928.446    13738.971    110.35841    55.540157    55.540157 
  116000    747.45254   -66105.057     -64559.3      14024.8     14347.55    13822.426    13904.423    110.35841    55.540157    55.540157 
  117000    751.76423   -66122.986   -64568.313    13969.843    14405.716    13847.648    13656.163    110.35841    55.540157    55.540157 
  118000    751.57276   -66121.498   -64567.221    14016.357    14251.995    13926.619    13870.458    110.35841    55.540157    55.540157 
  119000    751.10616   -66128.191   -64574.879    13954.053    14475.221    13788.943    13597.994    110.35841    55.540157    55.540157 
  120000    751.45968   -66119.302   -64565.259    14059.151    14206.959    13948.546    14021.947    110.35841    55.540157    55.540157 
  121000    752.67098   -66133.162   -64576.614    13858.327    14351.426    13548.345    13675.209    110.35841    55.540157    55.540157 
  122000    749.01767   -66114.835   -64565.841    13910.928    14204.042    13655.946    13872.796    110.35841    55.540157    55.540157 
  123000    746.64298    -66122.08   -64577.998    13934.963     14305.81    13855.104    13643.974    110.35841    55.540157    55.540157 
  124000     749.7207   -66108.605   -64558.158    14036.891    14475.901    13847.626    13787.146    110.35841    55.540157    55.540157 
  125000    750.05934   -66141.409   -64590.262     13952.33    14153.855     13816.89    13886.244    110.35841    55.540157    55.540157 
  126000    754.80452   -66116.219   -64555.258    14037.148     14527.09     13728.28    13856.075    110.35841    55.540157    55.540157 
  127000     748.1155   -66124.366   -64577.239    13986.635    14406.776    13774.913    13778.217    110.35841    55.540157    55.540157 
  128000    751.40103   -66110.455   -64556.533    14048.388    14466.771    13905.304    13773.089    110.35841    55.540157    55.540157 
  129000    748.58928   -66119.945   -64571.838    14030.838    14408.318    13778.209    13905.986    110.35841    55.540157    55.540157 
  130000    761.58843   -66126.092   -64551.102    14166.508    14582.569     13941.08    13975.875    110.35841    55.540157    55.540157 
  131000    744.42749   -66118.713   -64579.213    13893.692    14383.839    13659.879    13637.358    110.35841    55.540157    55.540157 
  132000    744.96423    -66125.65   -64585.039    14059.916    14342.167    13983.735    13853.844    110.35841    55.540157    55.540157 
  133000    756.65158   -66101.727   -64536.947     14194.55    14653.584    13940.361    13989.706    110.35841    55.540157    55.540157 
  134000     742.6552   -66107.379   -64571.543    14043.165    14334.618    14079.563    13715.315    110.35841    55.540157    55.540157 
  135000    747.86792   -66129.333   -64582.718    13974.846    14395.982    13789.017    13739.538    110.35841    55.540157    55.540157 
  136000    747.10716   -66110.097   -64565.055    14012.901    14483.604    13799.962    13755.136    110.35841    55.540157    55.540157 
  137000    746.96256   -66107.796   -64563.053    14063.455    14370.146    13943.996    13876.222    110.35841    55.540157    55.540157 
  138000    751.35749   -66127.479   -64573.647    13833.855    14468.845    13513.041    13519.677    110.35841    55.540157    55.540157 
  139000    759.26648   -66126.906   -64556.718    13929.465    14148.946    13815.587    13823.861    110.35841    55.540157    55.540157 
  140000    744.21258   -66110.983   -64571.926    14026.993    14592.974    13715.243    13772.762    110.35841    55.540157    55.540157 
  141000    750.91765    -66103.97   -64551.047    13960.428    14343.866    13778.562    13758.856    110.35841    55.540157    55.540157 
  142000     750.5553   -66131.666   -64579.492    13936.212    14274.263     13786.16    13748.214    110.35841    55.540157    55.540157 
  143000    757.54061   -66124.169    -64557.55    13924.469    14340.934    13668.743    13763.731    110.35841    55.540157    55.540157 
  144000    746.80679   -66124.831    -64580.41    13841.386    14195.012    13673.975    13655.172    110.35841    55.540157    55.540157 
  145000    747.57153    -66119.73   -64573.727    13954.215     14307.11    13817.317    13738.217    110.35841    55.540157    55.540157 
  146000    751.99647   -66098.352   -64543.199    14091.388    14502.095    13824.793    13947.274    110.35841    55.540157    55.540157 
  147000    757.21494   -66129.155   -64563.209    14099.768    14360.942    13921.031    14017.332    110.35841    55.540157    55.540157 
  148000    755.69034   -66123.641   -64560.848    14045.877    14337.371    13818.503    13981.756    110.35841    55.540157    55.540157 
  149000    745.79763    -66128.02   -64585.686    14031.392    14293.722    13895.978    13904.475    110.35841    55.540157    55.540157 
  150000    757.51151   -66114.805   -64548.246    14030.909    14384.466    13909.884    13798.379    110.35841    55.540157    55.540157 
Loop time of 171.87 on 16 procs for 50000 steps with 16000 atoms

Performance: 12.568 ns/day, 1.910 hours/ns, 290.917 timesteps/s
100.0% CPU use with 16 MPI tasks x no OpenMP threads

MPI task timing breakdown:
Section |  min time  |  avg time  |  max time  |%varavg| %total
---------------------------------------------------------------
Pair    | 156.33     | 159.11     | 161.21     |  11.2 | 92.57
Neigh   | 0          | 0          | 0          |   0.0 |  0.00
Comm    | 9.0273     | 11.113     | 13.893     |  42.4 |  6.47
Output  | 0.152      | 0.15205    | 0.15238    |   0.0 |  0.09
Modify  | 1.0015     | 1.014      | 1.032      |   0.8 |  0.59
Other   |            | 0.4828     |            |       |  0.28

Nlocal:    1000 ave 1000 max 1000 min
Histogram: 16 0 0 0 0 0 0 0 0 0
Nghost:    1744 ave 1744 max 1744 min
Histogram: 16 0 0 0 0 0 0 0 0 0
Neighs:    0 ave 0 max 0 min
Histogram: 16 0 0 0 0 0 0 0 0 0
FullNghs:  28000 ave 28000 max 28000 min
Histogram: 16 0 0 0 0 0 0 0 0 0

Total # of neighbors = 448000
Ave neighs/atom = 28
Neighbor list builds = 0
Dangerous builds = 0
unfix		NVT
write_restart	restart.NVT.*

# ------------ Annealing -----------------------------------------
fix             equil all langevin ${Thi} $T 0.05 ${langSEED} tally yes zero yes
fix             equil all langevin 750 $T 0.05 ${langSEED} tally yes zero yes
fix             equil all langevin 750 300 0.05 ${langSEED} tally yes zero yes
fix             equil all langevin 750 300 0.05 17042 tally yes zero yes
WARNING: Energy tally does not account for 'zero yes' (../fix_langevin.cpp:181)
fix             NVE all nve
run             ${NRUNanneal}
run             100000
Per MPI rank memory allocation (min/avg/max) = 4.447 | 4.447 | 4.448 Mbytes
Step Temp PotEng TotEng Press Pxx Pyy Pzz Lx Ly Lz 
  150000    757.51151   -66114.805   -64548.246    14030.909    14384.466    13909.884    13798.379    110.35841    55.540157    55.540157 
  151000    742.76653   -66137.972   -64601.907    13859.998    14177.709    13731.175    13671.109    110.35841    55.540157    55.540157 
  152000    739.29057   -66123.061   -64594.184    13898.032    14203.574     13817.03    13673.491    110.35841    55.540157    55.540157 
  153000    730.54357   -66160.544   -64649.756    13600.361    13973.017    13500.011    13328.056    110.35841    55.540157    55.540157 
  154000    734.47242   -66147.376   -64628.463    13713.729    14008.222    13587.099    13545.867    110.35841    55.540157    55.540157 
  155000    728.14266   -66169.724   -64663.901    13625.549    13996.683    13400.099    13479.867    110.35841    55.540157    55.540157 
  156000     731.6016   -66183.709   -64670.733    13520.576      13914.7    13314.004    13333.024    110.35841    55.540157    55.540157 
  157000    720.75306   -66202.642   -64712.101    13374.451    13762.993    13139.735    13220.625    110.35841    55.540157    55.540157 
  158000    715.78329   -66192.785   -64712.521    13486.727    13933.397    13181.055     13345.73    110.35841    55.540157    55.540157 
  159000    712.34252   -66212.563   -64739.415    13303.562    13710.465    13099.356    13100.865    110.35841    55.540157    55.540157 
  160000    697.33871   -66217.862   -64775.743    13158.721    13464.249    13020.872    12991.042    110.35841    55.540157    55.540157 
  161000    695.38862   -66222.087       -64784     13073.46    13374.108    12989.854    12856.418    110.35841    55.540157    55.540157 
  162000    699.66551   -66236.322   -64789.391    12979.121    13545.838    12693.344     12698.18    110.35841    55.540157    55.540157 
  163000    689.02796   -66243.007   -64818.074    12866.776    13339.149    12584.992    12676.189    110.35841    55.540157    55.540157 
  164000    689.80442    -66262.91   -64836.371    12840.251    13314.883    12672.134    12533.736    110.35841    55.540157    55.540157 
  165000    694.28858   -66256.319   -64820.507    12836.296    13160.412    12725.311    12623.166    110.35841    55.540157    55.540157 
  166000    678.84998   -66293.005   -64889.121    12641.016    12973.941    12442.784    12506.322    110.35841    55.540157    55.540157 
  167000    672.66113   -66272.258   -64881.172    12585.681    12902.704    12446.662    12407.679    110.35841    55.540157    55.540157 
  168000    669.18759   -66305.096   -64921.194     12555.87    12873.063    12470.257    12324.289    110.35841    55.540157    55.540157 
  169000    660.42115   -66323.425   -64957.652    12345.415    12754.195    12197.767    12084.281    110.35841    55.540157    55.540157 
  170000    665.73419   -66318.909   -64942.148    12388.695    12724.808    12138.702    12302.577    110.35841    55.540157    55.540157 
  171000    660.60788   -66319.341   -64953.182    12325.828    12767.984    12067.029     12142.47    110.35841    55.540157    55.540157 
  172000    656.02981   -66351.542   -64994.851    12101.691    12533.228    11953.695    11818.149    110.35841    55.540157    55.540157 
  173000    655.84638   -66331.146   -64974.834    12258.473    12533.225    12132.685    12109.509    110.35841    55.540157    55.540157 
  174000    643.27793   -66358.536   -65028.216    12081.696    12375.319    11945.246    11924.524    110.35841    55.540157    55.540157 
  175000    637.21773   -66372.374   -65054.587     11829.64    12157.021    11545.993    11785.906    110.35841    55.540157    55.540157 
  176000    633.64164   -66383.209   -65072.817    11729.904    12076.749    11561.775    11551.187    110.35841    55.540157    55.540157 
  177000    631.36675   -66394.766   -65089.079    11679.783    11913.981    11551.808     11573.56    110.35841    55.540157    55.540157 
  178000    625.17584   -66407.515   -65114.631    11641.469    11973.484    11372.302    11578.622    110.35841    55.540157    55.540157 
  179000     614.9401   -66417.115   -65145.399    11548.893    11895.538    11404.023    11347.117    110.35841    55.540157    55.540157 
  180000    615.96218   -66416.067   -65142.237     11523.71    11864.166     11343.92    11363.044    110.35841    55.540157    55.540157 
  181000    603.99167   -66421.711   -65172.636    11417.813    11769.968    11183.427    11300.044    110.35841    55.540157    55.540157 
  182000    607.91567   -66427.909    -65170.72    11393.361    11885.591    11113.508    11180.984    110.35841    55.540157    55.540157 
  183000    599.48123    -66446.65   -65206.903    11251.712    11722.516    11059.088    10973.532    110.35841    55.540157    55.540157 
  184000    591.03112   -66457.554   -65235.282    11094.174    11493.277    10952.883    10836.361    110.35841    55.540157    55.540157 
  185000    595.36015    -66457.45   -65226.225     11098.74    11364.537    11008.002    10923.681    110.35841    55.540157    55.540157 
  186000    588.84425   -66458.497   -65240.748    11160.595    11438.833    10964.993    11077.958    110.35841    55.540157    55.540157 
  187000    583.05551   -66467.786   -65262.007    11075.294    11314.835    10972.492    10938.554    110.35841    55.540157    55.540157 
  188000    580.78639   -66496.455    -65295.37    10855.853    11135.969    10704.498    10727.092    110.35841    55.540157    55.540157 
  189000    579.80872   -66511.436   -65312.373    10858.916     11086.53    10803.991    10686.226    110.35841    55.540157    55.540157 
  190000    563.79785   -66515.667   -65349.714    10613.974    11028.646    10357.265     10456.01    110.35841    55.540157    55.540157 
  191000    563.28132   -66527.834   -65362.949    10517.089    10893.772    10333.602    10323.892    110.35841    55.540157    55.540157 
  192000    565.46926   -66536.573   -65367.163    10514.377    10762.088    10422.733     10358.31    110.35841    55.540157    55.540157 
  193000    557.78007   -66536.347    -65382.84    10474.287    10689.485    10356.051    10377.326    110.35841    55.540157    55.540157 
  194000    551.98416   -66550.123   -65408.602    10349.767    10710.432    10164.963    10173.907    110.35841    55.540157    55.540157 
  195000    545.62449   -66547.887   -65419.518    10325.102    10507.974    10208.186    10259.147    110.35841    55.540157    55.540157 
  196000     546.8798   -66574.787   -65443.821    10188.347    10303.916    10128.528    10132.598    110.35841    55.540157    55.540157 
  197000    535.64703   -66583.577   -65475.841    10113.136    10408.612    9943.8904    9986.9064    110.35841    55.540157    55.540157 
  198000    531.59172   -66593.579    -65494.23    9991.5786    10173.135    9885.5775     9916.023    110.35841    55.540157    55.540157 
  199000    526.46841   -66601.537   -65512.783    9962.6083    10193.591     9916.099    9778.1349    110.35841    55.540157    55.540157 
  200000    530.18411   -66603.719   -65507.281    9881.9179    10113.706    9713.9547    9818.0936    110.35841    55.540157    55.540157 
  201000    518.77041   -66623.959   -65551.125    9706.8911    9978.9652    9566.5478    9575.1604    110.35841    55.540157    55.540157 
  202000    513.48848   -66634.008   -65572.097    9625.4544    9762.3026    9528.5633    9585.4974    110.35841    55.540157    55.540157 
  203000    509.76812   -66633.715   -65579.497    9617.2805    9928.2531    9498.2027    9425.3856    110.35841    55.540157    55.540157 
  204000    508.50506   -66646.883   -65595.278    9482.4376    9826.0458    9241.2045    9380.0624    110.35841    55.540157    55.540157 
  205000    505.24171   -66659.619   -65614.762    9433.9464    9759.6908    9223.2284    9318.9201    110.35841    55.540157    55.540157 
  206000    502.70122   -66672.916   -65633.313    9382.9319     9642.851    9318.0689    9187.8757    110.35841    55.540157    55.540157 
  207000    492.62725   -66678.093   -65659.323    9240.2217     9463.692    9127.9977    9128.9753    110.35841    55.540157    55.540157 
  208000    491.70331   -66687.175   -65670.316    9228.6068    9497.1723    9079.2208    9109.4272    110.35841    55.540157    55.540157 
  209000    486.42014   -66693.464   -65687.531    9142.7986    9411.2847    8981.6832     9035.428    110.35841    55.540157    55.540157 
  210000      481.486   -66705.181   -65709.452    9032.6903    9345.9469    8873.7091    8878.4148    110.35841    55.540157    55.540157 
  211000    473.37694   -66703.923   -65724.964    8960.0667    9338.5402    8724.7973    8816.8625    110.35841    55.540157    55.540157 
  212000    470.14861   -66735.941   -65763.658    8849.2353    9100.3134    8750.4017    8696.9906    110.35841    55.540157    55.540157 
  213000    466.87638   -66737.616     -65772.1    8840.4139    9188.0429    8686.1331    8647.0656    110.35841    55.540157    55.540157 
  214000    462.96304   -66735.918   -65778.495    8701.2405    9004.9474    8585.0767    8513.6973    110.35841    55.540157    55.540157 
  215000    449.90476   -66762.904   -65832.486    8500.4725    8785.1733    8383.9851    8332.2591    110.35841    55.540157    55.540157 
  216000    453.65546    -66766.94   -65828.766    8492.7068    8735.3921    8333.2497    8409.4785    110.35841    55.540157    55.540157 
  217000    446.27985    -66768.66   -65845.739    8445.0166    8660.1654    8327.5888    8347.2955    110.35841    55.540157    55.540157 
  218000    445.16533   -66774.278   -65853.662    8401.7045    8653.4975    8262.0344    8289.5815    110.35841    55.540157    55.540157 
  219000    438.96591   -66794.203   -65886.407    8245.3476    8526.9863    8083.2152    8125.8414    110.35841    55.540157    55.540157 
  220000    433.07843    -66809.57   -65913.949      8166.03    8280.8005    8087.2052    8130.0842    110.35841    55.540157    55.540157 
  221000    433.58278   -66811.149   -65914.486    8045.0749    8364.6971    7877.7766     7892.751    110.35841    55.540157    55.540157 
  222000    423.68658   -66824.889   -65948.691    8002.2729    8248.2915    7848.0355    7910.4919    110.35841    55.540157    55.540157 
  223000    420.94151   -66846.593   -65976.072    7790.0856    8009.2628    7658.4433    7702.5506    110.35841    55.540157    55.540157 
  224000    420.75479   -66846.166   -65976.031    7819.2118    8102.4403    7633.5338    7721.6613    110.35841    55.540157    55.540157 
  225000    413.14494   -66860.071   -66005.674    7707.0683    7860.8882    7580.4434    7679.8734    110.35841    55.540157    55.540157 
  226000    402.51528   -66858.429   -66026.014    7704.3453    8002.2156    7552.2977    7558.5225    110.35841    55.540157    55.540157 
  227000    404.52694   -66873.473   -66036.898    7544.2642     7793.289    7373.2484    7466.2551    110.35841    55.540157    55.540157 
  228000    398.83342   -66885.994   -66061.194    7476.6864    7650.2949    7307.5669    7472.1974    110.35841    55.540157    55.540157 
  229000    390.70779   -66877.146   -66069.149    7491.6511    7729.8907    7351.6526    7393.4099    110.35841    55.540157    55.540157 
  230000    389.22081   -66896.852    -66091.93    7376.7686    7501.8952    7256.5088    7371.9017    110.35841    55.540157    55.540157 
  231000    380.62352   -66904.957   -66117.815    7301.8776    7470.3178    7242.4544    7192.8607    110.35841    55.540157    55.540157 
  232000    378.51612   -66907.229   -66124.445    7260.3241    7492.5912    7148.1185    7140.2626    110.35841    55.540157    55.540157 
  233000    377.87257   -66922.954   -66141.501     7131.201    7331.4535    7063.4577     6998.692    110.35841    55.540157    55.540157 
  234000    369.69677   -66938.861   -66174.316    6927.0267    7109.1709     6854.084     6817.825    110.35841    55.540157    55.540157 
  235000    372.01895   -66952.287   -66182.939    6855.5388    7046.2806     6761.823    6758.5126    110.35841    55.540157    55.540157 
  236000    361.27603   -66963.376   -66216.245    6736.8809    7034.6347    6552.6516    6623.3564    110.35841    55.540157    55.540157 
  237000    357.28163   -66973.558   -66234.688    6665.8642    6927.4117     6563.553    6506.6278    110.35841    55.540157    55.540157 
  238000    352.58897   -66977.184   -66248.019    6664.0989    6821.6558    6580.4033    6590.2376    110.35841    55.540157    55.540157 
  239000    352.34586   -66988.594   -66259.931    6586.6484    6735.8729    6487.5801     6536.492    110.35841    55.540157    55.540157 
  240000    346.02798   -66996.351   -66280.754    6480.1053    6623.9473    6412.0432    6404.3254    110.35841    55.540157    55.540157 
  241000     342.0881   -67005.168   -66297.719    6427.0749    6610.0364    6353.8946    6317.2938    110.35841    55.540157    55.540157 
  242000     334.8714   -67007.766    -66315.24     6364.866    6585.9601    6298.0218    6210.6161    110.35841    55.540157    55.540157 
  243000    329.09591   -67028.853   -66348.272    6183.1685    6336.0038    6051.2159    6162.2859    110.35841    55.540157    55.540157 
  244000     328.9002   -67031.998   -66351.822    6185.1766    6385.9597    6062.1345    6107.4356    110.35841    55.540157    55.540157 
  245000     320.8613   -67040.436   -66376.884    6080.2398    6285.4304    5971.3147    5983.9742    110.35841    55.540157    55.540157 
  246000    317.56594   -67055.149   -66398.412    5976.9027    6124.1931    5877.7663    5928.7488    110.35841    55.540157    55.540157 
  247000    316.91972   -67051.676   -66396.275     5949.455    6151.1966    5847.2808    5849.8876    110.35841    55.540157    55.540157 
  248000    308.80077    -67064.55    -66425.94    5866.6318    6086.0025    5788.4284    5725.4645    110.35841    55.540157    55.540157 
  249000    304.54805   -67087.279   -66457.464    5730.4531    5928.1623    5618.1357    5645.0614    110.35841    55.540157    55.540157 
  250000    301.57108   -67094.164   -66470.505    5601.9191    5829.0585    5521.3716    5455.3273    110.35841    55.540157    55.540157 
Loop time of 351.408 on 16 procs for 100000 steps with 16000 atoms

Performance: 12.293 ns/day, 1.952 hours/ns, 284.569 timesteps/s
100.0% CPU use with 16 MPI tasks x no OpenMP threads

MPI task timing breakdown:
Section |  min time  |  avg time  |  max time  |%varavg| %total
---------------------------------------------------------------
Pair    | 316.94     | 322.25     | 327.89     |  14.8 | 91.70
Neigh   | 0          | 0          | 0          |   0.0 |  0.00
Comm    | 15.247     | 20.887     | 26.173     |  58.1 |  5.94
Output  | 0.22422    | 0.22431    | 0.22484    |   0.0 |  0.06
Modify  | 7.207      | 7.2317     | 7.2654     |   0.7 |  2.06
Other   |            | 0.8199     |            |       |  0.23

Nlocal:    1000 ave 1000 max 1000 min
Histogram: 16 0 0 0 0 0 0 0 0 0
Nghost:    1736 ave 1742 max 1729 min
Histogram: 2 2 0 3 0 1 2 0 2 4
Neighs:    0 ave 0 max 0 min
Histogram: 16 0 0 0 0 0 0 0 0 0
FullNghs:  28022 ave 28035 max 28011 min
Histogram: 3 1 0 5 0 2 1 2 1 1

Total # of neighbors = 448352
Ave neighs/atom = 28.022
Neighbor list builds = 0
Dangerous builds = 0
unfix           equil
unfix           NVE
write_restart	restart.anneal.300.*

# -------------- NVE Equilibration ----------------------------------
fix             NVE all nve
dump            snapNVExyz all custom ${snapprint} snap.NVE.lammpstrj id type x y z
dump            snapNVExyz all custom 1000 snap.NVE.lammpstrj id type x y z
run             ${NRUNNVE}
run             50000
Per MPI rank memory allocation (min/avg/max) = 5.36 | 5.36 | 5.361 Mbytes
Step Temp PotEng TotEng Press Pxx Pyy Pzz Lx Ly Lz 
  250000    301.57108   -67094.164   -66470.505    5601.9191    5829.0585    5521.3716    5455.3273    110.35841    55.540157    55.540157 
  251000    299.18355   -67089.226   -66470.504    5645.7685    5734.0326     5617.268    5586.0049    110.35841    55.540157    55.540157 
  252000    299.13216    -67089.12   -66470.505    5608.5978    5841.5851    5473.4426    5510.7656    110.35841    55.540157    55.540157 
  253000    300.32167   -67091.581   -66470.505     5614.218    5724.7091    5578.8812    5539.0638    110.35841    55.540157    55.540157 
  254000    299.02326   -67088.895   -66470.505    5628.0997    5859.4389    5541.8455    5483.0146    110.35841    55.540157    55.540157 
  255000    297.71666   -67086.192   -66470.504     5657.025     5758.436    5581.4919     5631.147    110.35841    55.540157    55.540157 
  256000    298.50187   -67087.815   -66470.503    5653.8785     5895.797     5536.165    5529.6734    110.35841    55.540157    55.540157 
  257000    297.78875   -67086.341   -66470.504    5643.5907    5765.9252    5583.4487    5581.3982    110.35841    55.540157    55.540157 
  258000    301.15349   -67093.301   -66470.505    5669.4756    5870.7634    5554.8974     5582.766    110.35841    55.540157    55.540157 
  259000    298.30784   -67087.414   -66470.504    5642.5747     5813.079    5559.5564    5555.0886    110.35841    55.540157    55.540157 
  260000    299.39432   -67089.662   -66470.505    5635.4862    5783.2191    5526.1432    5597.0964    110.35841    55.540157    55.540157 
  261000    301.00337    -67092.99   -66470.505    5655.0571    5877.2173    5560.1502    5527.8037    110.35841    55.540157    55.540157 
  262000    300.01983   -67090.957   -66470.506    5651.3392    5816.5105    5578.1764    5559.3308    110.35841    55.540157    55.540157 
  263000    298.78054   -67088.393   -66470.505    5625.3398    5917.9869    5473.3733    5484.6592    110.35841    55.540157    55.540157 
  264000    299.18507   -67089.229   -66470.505    5635.4153    5781.7742    5575.3547    5549.1172    110.35841    55.540157    55.540157 
  265000    303.45019   -67098.051   -66470.506    5597.5303    5825.6487    5486.0532    5480.8889    110.35841    55.540157    55.540157 
  266000    301.41224   -67093.836   -66470.506    5618.5042    5743.9234     5534.838    5576.7512    110.35841    55.540157    55.540157 
  267000    302.91467   -67096.945   -66470.507    5590.2573    5836.5599    5470.5808    5463.6313    110.35841    55.540157    55.540157 
  268000    298.72979   -67088.288   -66470.505    5642.0738     5786.015    5550.2752    5589.9313    110.35841    55.540157    55.540157 
  269000    299.17798   -67089.216   -66470.506    5638.8027    5822.0393    5545.7325    5548.6363    110.35841    55.540157    55.540157 
  270000    301.37102   -67093.751   -66470.506    5581.0915    5827.8468    5440.7425    5474.6851    110.35841    55.540157    55.540157 
  271000    304.79821   -67100.841   -66470.508     5540.017    5687.0817    5455.8129    5477.1565    110.35841    55.540157    55.540157 
  272000     302.2149   -67095.497   -66470.506    5595.8603      5811.07    5520.4048    5456.1062    110.35841    55.540157    55.540157 
  273000    297.09183     -67084.9   -66470.504    5662.6723    5854.2369    5564.4653    5569.3147    110.35841    55.540157    55.540157 
  274000    301.32948   -67093.665   -66470.506    5601.7433    5848.7125    5502.4775      5454.04    110.35841    55.540157    55.540157 
  275000    302.79418   -67096.694   -66470.505    5665.2611    5809.6043    5630.6809    5555.4979    110.35841    55.540157    55.540157 
  276000    300.36095   -67091.662   -66470.506    5619.8093    5893.6032    5467.5774    5498.2473    110.35841    55.540157    55.540157 
  277000    297.62467   -67086.002   -66470.504    5633.0661    5738.5439    5548.5884     5612.066    110.35841    55.540157    55.540157 
  278000    298.18895    -67087.17   -66470.505    5627.8971    5866.0047    5526.1058    5491.5807    110.35841    55.540157    55.540157 
  279000    299.55536   -67089.996   -66470.505    5625.6546    5811.6211    5514.1542    5551.1886    110.35841    55.540157    55.540157 
  280000    299.01207   -67088.872   -66470.505     5632.262    5802.1175     5525.559    5569.1094    110.35841    55.540157    55.540157 
  281000    300.40797    -67091.76   -66470.506    5607.5031     5839.766    5489.9779    5492.7654    110.35841    55.540157    55.540157 
  282000    299.62182   -67090.133   -66470.506    5633.2487    5776.9569    5585.4104    5537.3787    110.35841    55.540157    55.540157 
  283000    300.85134   -67092.676   -66470.505    5642.8752    5902.0541    5533.4914    5493.0801    110.35841    55.540157    55.540157 
  284000    299.29847   -67089.464   -66470.505    5629.2915    5746.0723    5570.6511    5571.1512    110.35841    55.540157    55.540157 
  285000    301.10346   -67093.198   -66470.506    5594.8562    5824.2459    5443.6706     5516.652    110.35841    55.540157    55.540157 
  286000    299.21673   -67089.295   -66470.505    5635.1905    5807.5696    5527.0789    5570.9231    110.35841    55.540157    55.540157 
  287000    301.13237   -67093.257   -66470.506    5637.2969    5793.3787     5551.553    5566.9589    110.35841    55.540157    55.540157 
  288000    298.43652   -67087.681   -66470.505    5657.6097    5833.6965    5584.4101    5554.7223    110.35841    55.540157    55.540157 
  289000    300.29031   -67091.516   -66470.505    5640.7458    5782.8912     5554.451    5584.8952    110.35841    55.540157    55.540157 
  290000    300.64956   -67092.259   -66470.506    5640.7053    5807.3082     5563.707    5551.1007    110.35841    55.540157    55.540157 
  291000    300.25551   -67091.445   -66470.506     5616.701    5747.4717    5550.3601    5552.2711    110.35841    55.540157    55.540157 
  292000    299.68897   -67090.271   -66470.505     5659.617    5885.8922    5552.7982    5540.1606    110.35841    55.540157    55.540157 
  293000    299.11551   -67089.086   -66470.505    5647.6231    5825.9556    5553.1258    5563.7878    110.35841    55.540157    55.540157 
  294000    298.25385   -67087.304   -66470.505    5651.8429    5866.4136    5515.8332    5573.2818    110.35841    55.540157    55.540157 
  295000    298.27853   -67087.355   -66470.505    5678.1802    5770.7763    5622.4679    5641.2965    110.35841    55.540157    55.540157 
  296000    298.61192   -67088.044   -66470.505    5620.5019     5891.342    5482.0131    5488.1507    110.35841    55.540157    55.540157 
  297000    300.93848   -67092.857   -66470.506    5615.1239    5752.1456    5582.7152    5510.5108    110.35841    55.540157    55.540157 
  298000    299.08068   -67089.014   -66470.505    5630.6076    5802.2321    5579.3464    5510.2443    110.35841    55.540157    55.540157 
  299000    298.79653   -67088.426   -66470.505    5671.4784     5826.604    5623.3566    5564.4747    110.35841    55.540157    55.540157 
  300000    297.62666   -67086.006   -66470.504    5668.2547     5831.622    5539.3271    5633.8149    110.35841    55.540157    55.540157 
Loop time of 171.589 on 16 procs for 50000 steps with 16000 atoms

Performance: 12.588 ns/day, 1.907 hours/ns, 291.395 timesteps/s
100.0% CPU use with 16 MPI tasks x no OpenMP threads

MPI task timing breakdown:
Section |  min time  |  avg time  |  max time  |%varavg| %total
---------------------------------------------------------------
Pair    | 157.45     | 159.99     | 162.22     |  10.6 | 93.24
Neigh   | 0          | 0          | 0          |   0.0 |  0.00
Comm    | 8.2821     | 10.509     | 13.041     |  41.5 |  6.12
Output  | 0.20496    | 0.20501    | 0.20527    |   0.0 |  0.12
Modify  | 0.36368    | 0.37868    | 0.39794    |   1.4 |  0.22
Other   |            | 0.5084     |            |       |  0.30

Nlocal:    1000 ave 1000 max 1000 min
Histogram: 16 0 0 0 0 0 0 0 0 0
Nghost:    1743.88 ave 1744 max 1743 min
Histogram: 2 0 0 0 0 0 0 0 0 14
Neighs:    0 ave 0 max 0 min
Histogram: 16 0 0 0 0 0 0 0 0 0
FullNghs:  28001.1 ave 28003 max 28000 min
Histogram: 7 0 0 1 0 0 7 0 0 1

Total # of neighbors = 448018
Ave neighs/atom = 28.0011
Neighbor list builds = 0
Dangerous builds = 0
unfix           NVE
write_restart   restart.anneal.NVE.*

# ------------ Pressure Relaxation -----------------------------------------
fix             NPT all npt temp $T $T 0.05 x 0 0 0.5 y 0 0 0.5 z 0 0 0.5 couple none tchain 10
fix             NPT all npt temp 300 $T 0.05 x 0 0 0.5 y 0 0 0.5 z 0 0 0.5 couple none tchain 10
fix             NPT all npt temp 300 300 0.05 x 0 0 0.5 y 0 0 0.5 z 0 0 0.5 couple none tchain 10

run             ${NRUNNPT}
run             50000
Per MPI rank memory allocation (min/avg/max) = 5.36 | 5.36 | 5.361 Mbytes
Step Temp PotEng TotEng Press Pxx Pyy Pzz Lx Ly Lz 
  300000    297.62666   -67086.006   -66470.504    5668.2547     5831.622    5539.3271    5633.8149    110.35841    55.540157    55.540157 
  301000    298.14057   -67082.267   -66465.702  -0.81496292   -11.787871    88.963495   -79.620512    110.63909    55.651956    55.658242 
  302000    298.21742   -67087.001   -66470.277   -131.54997   -120.87185   -215.29827    -58.47979    110.63706    55.664185    55.655527 
  303000    298.99683   -67083.608   -66465.272    80.648674    27.209415    38.413912    176.32269    110.64572    55.653412    55.649787 
  304000    301.84445     -67096.5   -66472.276    163.28469    127.89129    320.57747    41.385322    110.62935    55.640537    55.658339 
  305000    299.40227    -67081.55   -66462.376    102.90904    91.582234    132.96316    84.181719    110.63643    55.652807    55.655046 
  306000    298.72775   -67085.378   -66467.599   -27.174278    -9.673833   -204.85566    133.00666    110.63932    55.667862    55.644598 
  307000    300.23958    -67085.56   -66464.654   -100.56379   -9.9593003   -343.61907    51.886994    110.62291    55.676846    55.648212 
  308000    300.49661   -67087.232   -66465.795   -35.302106    -383.1396    33.031883     244.2014    110.69139     55.65246    55.635845 
  309000    301.41373   -67089.442   -66466.108    73.280208   -243.84723    319.95551    143.73235    110.67453    55.636155    55.652506 
  310000     298.2793   -67092.663   -66475.811   -132.03655   -146.51903   -14.163804   -235.42682    110.64213    55.649491    55.663806 
  311000    297.89829   -67096.428   -66480.365   -22.165938    167.00348   -51.946688   -181.55461    110.61844    55.654657    55.664544 
  312000    300.35493   -67087.746   -66466.602    14.199427    97.762178    48.511462   -103.67536    110.62603    55.654664    55.661276 
  313000    301.05257   -67093.312   -66470.725    211.57243    -78.74899    217.21045    496.25584    110.67349    55.653979    55.625729 
  314000    302.84277   -67086.149    -66459.86    141.26135    87.214159   -166.36714    502.93702    110.63483    55.675344    55.630971 
  315000    300.79878    -67085.32   -66463.258   -43.884111    122.71859   -95.316942   -159.05398    110.61941    55.660966    55.660732 
  316000    297.51987   -67084.036   -66468.755   -11.729642   -105.68452    153.58323   -83.087641    110.65374    55.642009    55.663447 
  317000    298.11497   -67090.266   -66473.754   -98.803464   -51.017206    26.579483   -271.97267    110.62868    55.648168    55.672459 
  318000    298.75697    -67084.49   -66466.651   -211.47883   -292.42041   -122.28564   -219.73044    110.66079    55.653657    55.662028 
  319000     300.2327    -67087.47   -66466.579   -55.155222    11.223569   -147.49128   -29.197952    110.63413    55.663046    55.655965 
  320000    303.06902   -67086.853   -66460.097    125.24221     68.48425    184.42263    122.81975    110.63759    55.651415    55.656439 
  321000     298.9774   -67087.246   -66468.951    455.56078    337.31162    617.86496    411.50575    110.64295    55.635113    55.646551 
  322000    303.02506   -67083.725   -66457.059    39.719876    -170.6149    47.305117    242.46941    110.65931    55.658362    55.645755 
  323000    299.97158   -67083.829   -66463.478   -638.63933   -640.18979   -803.89343   -471.83477    110.66811    55.679747    55.660273 
  324000    300.10496   -67089.862   -66469.235   -7.1893481      177.739   -112.59849   -86.708559    110.61314    55.658164    55.663353 
  325000    303.09992   -67092.919   -66466.099    36.132682    79.253087     103.2308   -74.085841    110.62468    55.650905    55.663884 
  326000    299.69476   -67085.715   -66465.936   -4.8960296    58.944827   -197.93205    124.29913    110.63806    55.668526    55.644582 
  327000    298.76224   -67086.167   -66468.317   -45.102421   -40.356672   -265.45063    170.50004    110.63806    55.672703    55.641015 
  328000    302.38448   -67084.614   -66459.273   -281.46838   -539.29267   -348.25201    43.139557     110.6991    55.668405    55.633516 
  329000    298.21272   -67088.252   -66471.539    208.42459    15.720295    548.94683    60.606637    110.65815    55.626096    55.661321 
  330000    301.18365   -67080.874   -66458.016    270.86596    296.06754    497.59009    18.940244    110.62323    55.632821    55.672536 
  331000     299.7998   -67090.115   -66470.119   -188.09877   -176.52553   -121.32637   -266.44441     110.6443    55.654123    55.662458 
  332000    300.37267   -67078.331   -66457.151   -167.73698   -135.59461    -258.6049   -109.01142    110.64326    55.667733    55.656645 
  333000    300.83248   -67093.252   -66471.121   -31.082322   -29.125638   -170.04621    105.92488    110.63445    55.664475    55.647536 
  334000    297.38041   -67086.955   -66471.962    202.73166    204.11556    208.99773    195.08169    110.63825    55.646842    55.648529 
  335000    299.00085   -67079.239   -66460.896   -421.57488   -549.79678   -123.90186     -591.026    110.67468    55.642724     55.68021 
  336000    298.98276   -67085.144   -66466.838   -537.21892   -452.30923   -453.13436   -706.21317    110.66335    55.657288    55.676963 
  337000    299.85332   -67084.563   -66464.456   -47.597411   -156.59757   -136.41467    150.22001    110.65227    55.663607    55.644058 
  338000    298.63855    -67083.11   -66465.516    362.71312    457.77491    264.72963    365.63482    110.60714    55.656649     55.64723 
  339000    303.52551   -67093.402   -66465.701    135.20216    122.29159     146.7136    136.60128    110.63209     55.65139    55.654301 
  340000    302.09146   -67082.978   -66458.243   -26.021901    40.520911   -173.17385    54.587237    110.63376    55.665065    55.652667 
  341000    295.66984   -67092.552   -66481.097   -621.53279   -428.15918    -1107.011   -329.42816    110.64988    55.697607    55.642341 
  342000     298.6241   -67084.417   -66466.853    110.30205    181.17377   -252.38418    402.11655     110.6235     55.67639    55.635394 
  343000    298.22838    -67089.96   -66473.214    360.53488    304.81612    439.57946    337.20906    110.62567    55.644546    55.645365 
  344000    301.44904   -67091.901   -66468.494   -132.05222   -172.17182   -67.783249   -156.20159    110.65602    55.650405    55.660506 
  345000    300.65764   -67088.854   -66467.084   -253.72617   -338.17102   -106.50536   -316.50213    110.66388    55.650187    55.666563 
  346000    297.55437   -67086.754   -66471.402    294.53818    166.46726     467.4853    249.66197    110.64251    55.636218    55.653913 
  347000    301.63357   -67084.067   -66460.279     298.0574    287.16842    262.25305    344.75072    110.63368    55.651364    55.644977 
  348000    296.61672   -67087.123   -66473.709   -136.83851    14.471604   -363.61428   -61.372846    110.62115    55.671828    55.656853 
  349000    300.79958   -67090.671   -66468.608   -247.63472   -153.10922   -251.52386    -338.2711    110.63405    55.660652    55.666752 
  350000    300.28174   -67083.307   -66462.315    58.355701    69.993361    83.702349    21.371391    110.63701    55.651818    55.660184 
Loop time of 176.806 on 16 procs for 50000 steps with 16000 atoms

Performance: 12.217 ns/day, 1.965 hours/ns, 282.795 timesteps/s
100.0% CPU use with 16 MPI tasks x no OpenMP threads

MPI task timing breakdown:
Section |  min time  |  avg time  |  max time  |%varavg| %total
---------------------------------------------------------------
Pair    | 158.09     | 161.75     | 163.28     |  10.2 | 91.49
Neigh   | 0          | 0          | 0          |   0.0 |  0.00
Comm    | 9.7661     | 11.313     | 14.987     |  38.5 |  6.40
Output  | 0.21056    | 0.21059    | 0.21088    |   0.0 |  0.12
Modify  | 2.6717     | 2.7639     | 2.824      |   2.3 |  1.56
Other   |            | 0.7645     |            |       |  0.43

Nlocal:    1000 ave 1000 max 1000 min
Histogram: 16 0 0 0 0 0 0 0 0 0
Nghost:    1743.94 ave 1744 max 1743 min
Histogram: 1 0 0 0 0 0 0 0 0 15
Neighs:    0 ave 0 max 0 min
Histogram: 16 0 0 0 0 0 0 0 0 0
FullNghs:  28000.9 ave 28004 max 28000 min
Histogram: 10 0 0 0 0 5 0 0 0 1

Total # of neighbors = 448014
Ave neighs/atom = 28.0009
Neighbor list builds = 0
Dangerous builds = 0
unfix           NPT
write_restart   restart.NPT.300.*

# -------------- NVE Equilibration ----------------------------------
fix             NVE all nve
dump            snapNVEPxyz all custom ${snapprint} snap.NVE.pressure.lammpstrj id type x y z
dump            snapNVEPxyz all custom 1000 snap.NVE.pressure.lammpstrj id type x y z
run             ${NRUNNVE}
run             50000
Per MPI rank memory allocation (min/avg/max) = 6.648 | 6.649 | 6.649 Mbytes
Step Temp PotEng TotEng Press Pxx Pyy Pzz Lx Ly Lz 
  350000    300.28174   -67083.307   -66462.315    58.355701    69.993361    83.702349    21.371391    110.63701    55.651818    55.660184 
  351000     300.3998   -67083.553   -66462.316    17.346249    11.811945    71.216278   -30.989478    110.63701    55.651818    55.660184 
  352000    301.56635   -67085.964   -66462.315    29.157507    91.515269    56.529632   -60.572379    110.63701    55.651818    55.660184 
  353000    304.09474   -67091.194   -66462.316   -3.4843112   -29.386945    48.236926   -29.302914    110.63701    55.651818    55.660184 
  354000    297.95915   -67078.503   -66462.314    30.565042    55.865085     126.8562   -91.026153    110.63701    55.651818    55.660184 
  355000    299.26646   -67081.207   -66462.314    61.760118    51.074768    93.556617    40.648968    110.63701    55.651818    55.660184 
  356000    299.18799   -67081.044   -66462.314    40.485899     30.79562    92.597944   -1.9358665    110.63701    55.651818    55.660184 
  357000    300.70693   -67084.187   -66462.315    51.870981    85.037157    80.071891   -9.4961058    110.63701    55.651818    55.660184 
  358000    302.42874   -67087.748   -66462.315    89.079374    50.008841    182.21558      35.0137    110.63701    55.651818    55.660184 
  359000    302.33395   -67087.552   -66462.315    34.340193    7.0051205    105.03779   -9.0223359    110.63701    55.651818    55.660184 
  360000    301.48337   -67085.793   -66462.316    33.349541   -7.4535379    92.439221     15.06294    110.63701    55.651818    55.660184 
  361000    300.02325   -67082.773   -66462.315    23.291261    28.035146    106.79341    -64.95477    110.63701    55.651818    55.660184 
  362000    300.14108   -67083.016   -66462.315    24.700403    23.777384    85.619997   -35.296172    110.63701    55.651818    55.660184 
  363000    298.82123   -67080.286   -66462.314    14.155792    31.000502    48.517186   -37.050311    110.63701    55.651818    55.660184 
  364000     302.2507    -67087.38   -66462.315    55.206434    50.172131    98.063713    17.383459    110.63701    55.651818    55.660184 
  365000    303.20064   -67089.345   -66462.316    7.1566519    29.309868    38.335284   -46.175197    110.63701    55.651818    55.660184 
  366000    299.31881   -67081.315   -66462.314    57.562774    88.151622    90.046591   -5.5098911    110.63701    55.651818    55.660184 
  367000    301.21904   -67085.246   -66462.315    20.585686    73.273199    82.641767   -94.157909    110.63701    55.651818    55.660184 
  368000    299.27149   -67081.218   -66462.314    23.988384    9.5492021    93.920957   -31.505008    110.63701    55.651818    55.660184 
  369000     302.7894   -67088.494   -66462.316    61.521018     135.0038     86.54735   -36.988095    110.63701    55.651818    55.660184 
  370000    298.93569   -67080.523   -66462.314    58.747821    46.477553    148.55072   -18.784812    110.63701    55.651818    55.660184 
  371000    301.88687   -67086.628   -66462.316    12.112887    61.535207    35.751952   -60.948499    110.63701    55.651818    55.660184 
  372000    302.60081   -67088.105   -66462.316    7.3230492    36.565843    21.436756   -36.033452    110.63701    55.651818    55.660184 
  373000    300.00122   -67082.727   -66462.314    44.957693    -23.21554    142.12803    15.960589    110.63701    55.651818    55.660184 
  374000    298.28425   -67079.174   -66462.312    83.541109    78.545077    175.37059   -3.2923375    110.63701    55.651818    55.660184 
  375000    300.10277   -67082.937   -66462.315   0.69154854   -9.2522829    51.415801   -40.088872    110.63701    55.651818    55.660184 
  376000    300.77704   -67084.331   -66462.315    65.974844    83.272198    117.37679   -2.7244518    110.63701    55.651818    55.660184 
  377000    300.46645   -67083.689   -66462.314    71.398618    76.019003    150.98118   -12.804332    110.63701    55.651818    55.660184 
  378000    299.99636   -67082.717   -66462.315    16.620698    77.690198    53.675198   -81.503301    110.63701    55.651818    55.660184 
  379000    300.01257   -67082.751   -66462.315    11.820604    53.269279    36.477112   -54.284579    110.63701    55.651818    55.660184 
  380000    300.81944   -67084.421   -66462.316    -20.96615   -13.417883   -6.1984605   -43.282106    110.63701    55.651818    55.660184 
  381000    299.51574   -67081.723   -66462.314    65.976198    83.576743    128.28175   -13.929898    110.63701    55.651818    55.660184 
  382000    302.54637   -67087.991   -66462.315    47.697292    71.025651    96.726724   -24.660499    110.63701    55.651818    55.660184 
  383000    301.19621   -67085.199   -66462.316    9.8314595    7.1728113    92.213769   -69.892202    110.63701    55.651818    55.660184 
  384000    303.14385   -67089.228   -66462.316    28.214667    -23.03591    100.66688    7.0130346    110.63701    55.651818    55.660184 
  385000    301.29171   -67085.396   -66462.315    19.715359    85.083217     10.53211   -36.469251    110.63701    55.651818    55.660184 
  386000    301.68145   -67086.204   -66462.317    21.864822   -60.251066    83.551054    42.294477    110.63701    55.651818    55.660184 
  387000    299.40331    -67081.49   -66462.314    29.805231    111.46051    72.891449   -94.936268    110.63701    55.651818    55.660184 
  388000    301.20689    -67085.22   -66462.314     60.12267    82.471085    90.263653    7.6332721    110.63701    55.651818    55.660184 
  389000    298.55246    -67079.73   -66462.313    58.576781    32.524384     135.6023    7.6036571    110.63701    55.651818    55.660184 
  390000     301.6574   -67086.153   -66462.315   -4.8465192   -15.775763    65.203872   -63.967667    110.63701    55.651818    55.660184 
  391000    300.44344   -67083.641   -66462.314    40.185344    21.554661    122.24096   -23.239591    110.63701    55.651818    55.660184 
  392000     299.7974   -67082.305   -66462.314     -5.33917    66.345741   -21.208497   -61.154754    110.63701    55.651818    55.660184 
  393000    301.59982   -67086.033   -66462.315     22.19303    4.3972703    120.94082   -58.758996    110.63701    55.651818    55.660184 
  394000     301.1319   -67085.065   -66462.315    15.361512    57.444355     73.86287   -85.222689    110.63701    55.651818    55.660184 
  395000    301.03729    -67084.87   -66462.315    46.563193    71.902187    60.705661    7.0817301    110.63701    55.651818    55.660184 
  396000     301.8361   -67086.523   -66462.316     3.306018   -13.614242     80.29473   -56.762434    110.63701    55.651818    55.660184 
  397000     301.8891   -67086.632   -66462.316   0.24993337    7.0299225    16.740359   -23.020481    110.63701    55.651818    55.660184 
  398000    300.84076   -67084.464   -66462.316    36.833192    18.323591    83.246784       8.9292    110.63701    55.651818    55.660184 
  399000    299.06344   -67080.786   -66462.313    16.181751    53.416776    38.748557    -43.62008    110.63701    55.651818    55.660184 
  400000    302.37075   -67087.629   -66462.316    -14.04417   -11.026015     42.35364   -73.460136    110.63701    55.651818    55.660184 
Loop time of 171.712 on 16 procs for 50000 steps with 16000 atoms

Performance: 12.579 ns/day, 1.908 hours/ns, 291.185 timesteps/s
100.0% CPU use with 16 MPI tasks x no OpenMP threads

MPI task timing breakdown:
Section |  min time  |  avg time  |  max time  |%varavg| %total
---------------------------------------------------------------
Pair    | 157.71     | 160.1      | 161.76     |   8.4 | 93.24
Neigh   | 0          | 0          | 0          |   0.0 |  0.00
Comm    | 8.7422     | 10.401     | 12.777     |  32.8 |  6.06
Output  | 0.33421    | 0.33428    | 0.33456    |   0.0 |  0.19
Modify  | 0.36403    | 0.37887    | 0.39206    |   1.3 |  0.22
Other   |            | 0.499      |            |       |  0.29

Nlocal:    1000 ave 1000 max 1000 min
Histogram: 16 0 0 0 0 0 0 0 0 0
Nghost:    1743.56 ave 1744 max 1742 min
Histogram: 2 0 0 0 0 3 0 0 0 11
Neighs:    0 ave 0 max 0 min
Histogram: 16 0 0 0 0 0 0 0 0 0
FullNghs:  28000.4 ave 28002 max 28000 min
Histogram: 13 0 0 0 0 0 0 0 0 3

Total # of neighbors = 448006
Ave neighs/atom = 28.0004
Neighbor list builds = 0
Dangerous builds = 0
unfix           NVE
write_restart   restart.NVE.pressure.*

write_restart   restart.final.*
write_data	data.vels nocoeff
Total wall time: 0:29:09
