LAMMPS DATA FILE FOR SED

86400 atoms

1 atom types

-0.68 1628.82 xlo xhi
-0.68 31.91 ylo yhi
-20.0 51.230000000000004 zlo zhi

Masses

1 28.0855

Atoms

1 1 -0.54 27.7 0.0
2 1 -0.54 16.84 0.0
3 1 -0.54 5.97 0.0
4 1 0.0 16.29 16.29
5 1 0.0 13.58 19.01
6 1 0.0 0.0 10.86
7 1 0.0 27.16 27.16
8 1 0.0 2.72 13.58
9 1 0.0 8.15 19.01
10 1 0.0 2.72 19.01
11 1 0.0 19.01 19.01
12 1 0.0 0.0 16.29
13 1 0.0 5.43 10.86
14 1 0.0 8.15 13.58
15 1 0.0 29.87 13.58
16 1 0.0 27.16 10.86
17 1 0.0 5.43 16.29
18 1 0.0 29.87 8.15
19 1 0.0 21.72 16.29
20 1 0.0 24.44 19.01
21 1 0.0 27.16 16.29
22 1 0.0 29.87 19.01
23 1 0.0 24.44 8.15
24 1 0.0 21.72 5.43
25 1 0.0 0.0 21.72
26 1 0.0 2.72 24.44
27 1 0.0 10.86 16.29
28 1 0.0 29.87 29.87
29 1 0.0 13.58 24.44
30 1 0.0 16.29 10.86
31 1 0.0 19.01 2.72
32 1 0.0 13.58 2.72
33 1 0.0 8.15 2.72
34 1 0.0 24.44 13.58
35 1 0.0 21.72 10.86
36 1 0.0 27.16 5.43
37 1 0.0 13.58 13.58
38 1 0.0 10.86 21.72
39 1 0.0 19.01 13.58
40 1 0.0 16.29 21.72
41 1 0.0 19.01 24.44
42 1 0.0 13.58 8.15
43 1 0.0 10.86 5.43
44 1 0.0 21.72 21.72
45 1 0.0 24.44 24.44
46 1 0.0 27.16 21.72
47 1 0.0 29.87 24.44
48 1 0.0 8.15 8.15
49 1 0.0 5.43 5.43
50 1 0.0 0.0 27.16
51 1 0.0 2.72 29.87
52 1 0.0 10.86 10.86
53 1 0.0 5.43 27.16
54 1 0.0 8.15 29.87
55 1 0.0 5.43 21.72
56 1 0.0 8.15 24.44
57 1 0.0 19.01 8.15
58 1 0.0 16.29 5.43
59 1 0.0 24.44 29.87
60 1 0.0 21.72 27.16
61 1 0.0 2.72 2.72
62 1 0.0 24.44 2.72
63 1 0.0 19.01 29.87
64 1 0.0 16.29 27.16
65 1 0.0 13.58 29.87
66 1 0.0 10.86 27.16
67 1 0.0 0.0 5.43
68 1 0.0 2.72 8.15
69 1 0.0 29.87 2.72
70 1 0.54 21.18 0.0
71 1 0.54 10.32 0.0
72 1 0.54 -0.54 0.0
73 1 0.81 26.34 31.23
74 1 0.81 15.48 31.23
75 1 0.81 4.62 31.23
76 1 1.36 31.23 14.94
77 1 1.36 17.65 17.65
78 1 1.36 14.94 14.94
79 1 1.36 9.5 20.37
80 1 1.36 4.07 20.37
81 1 1.36 31.23 25.8
82 1 1.36 6.79 23.08
83 1 1.36 4.07 25.8
84 1 1.36 12.22 6.79
85 1 1.36 1.36 23.08
86 1 1.36 28.51 1.36
87 1 1.36 31.23 4.07
88 1 1.36 6.79 17.65
89 1 1.36 31.23 20.37
90 1 1.36 14.94 9.5
91 1 1.36 12.22 12.22
92 1 1.36 1.36 12.22
93 1 1.36 9.5 14.94
94 1 1.36 6.79 12.22
95 1 1.36 14.94 4.07
96 1 1.36 31.23 9.5
97 1 1.36 4.07 4.07
98 1 1.36 23.08 28.51
99 1 1.36 12.22 1.36
100 1 1.36 28.51 6.79
101 1 1.36 28.51 28.51
102 1 1.36 4.07 14.94
103 1 1.36 17.65 28.51
104 1 1.36 12.22 28.51
105 1 1.36 1.36 1.36
106 1 1.36 1.36 28.51
107 1 1.36 6.79 28.51
108 1 1.36 28.51 17.65
109 1 1.36 14.94 20.37
110 1 1.36 17.65 6.79
111 1 1.36 23.08 1.36
112 1 1.36 17.65 23.08
113 1 1.36 20.37 9.5
114 1 1.36 25.8 14.94
115 1 1.36 25.8 4.07
116 1 1.36 14.94 25.8
117 1 1.36 23.08 12.22
118 1 1.36 28.51 12.22
119 1 1.36 20.37 14.94
120 1 1.36 23.08 23.08
121 1 1.36 25.8 25.8
122 1 1.36 17.65 12.22
123 1 1.36 20.37 4.07
124 1 1.36 17.65 1.36
125 1 1.36 6.79 1.36
126 1 1.36 12.22 17.65
127 1 1.36 25.8 9.5
128 1 1.36 9.5 4.07
129 1 1.36 28.51 23.08
130 1 1.36 20.37 25.8
131 1 1.36 12.22 23.08
132 1 1.36 9.5 25.8
133 1 1.36 1.36 17.65
134 1 1.36 20.37 20.37
135 1 1.36 23.08 17.65
136 1 1.36 23.08 6.79
137 1 1.36 6.79 6.79
138 1 1.36 9.5 9.5
139 1 1.36 4.07 9.5
140 1 1.36 1.36 6.79
141 1 1.36 25.8 20.37
142 1 1.9 8.96 31.23
143 1 1.9 19.82 31.23
144 1 1.9 30.69 31.23
145 1 2.17 8.69 0.0
146 1 2.17 30.41 0.0
147 1 2.17 19.55 0.0
148 1 2.72 8.15 16.29
149 1 2.72 27.16 29.87
150 1 2.72 5.43 19.01
151 1 2.72 16.29 8.15
152 1 2.72 19.01 5.43
153 1 2.72 19.01 10.86
154 1 2.72 8.15 10.86
155 1 2.72 16.29 2.72
156 1 2.72 16.29 13.58
157 1 2.72 10.86 2.72
158 1 2.72 29.87 16.29
159 1 2.72 10.86 24.44
160 1 2.72 24.44 21.72
161 1 2.72 5.43 13.58
162 1 2.72 27.16 19.01
163 1 2.72 8.15 27.16
164 1 2.72 0.0 19.01
165 1 2.72 19.01 16.29
166 1 2.72 29.87 27.16
167 1 2.72 0.0 8.15
168 1 2.72 21.72 13.58
169 1 2.72 24.44 27.16
170 1 2.72 2.72 5.43
171 1 2.72 2.72 16.29
172 1 2.72 8.15 21.72
173 1 2.72 21.72 8.15
174 1 2.72 0.0 29.87
175 1 2.72 2.72 27.16
176 1 2.72 24.44 5.43
177 1 2.72 16.29 29.87
178 1 2.72 5.43 29.87
179 1 2.72 24.44 10.86
180 1 2.72 29.87 10.86
181 1 2.72 5.43 24.44
182 1 2.72 0.0 24.44
183 1 2.72 19.01 27.16
184 1 2.72 27.16 13.58
185 1 2.72 27.16 24.44
186 1 2.72 29.87 21.72
187 1 2.72 13.58 27.16
188 1 2.72 21.72 2.72
189 1 2.72 13.58 16.29
190 1 2.72 10.86 19.01
191 1 2.72 0.0 13.58
192 1 2.72 2.72 10.86
193 1 2.72 27.16 2.72
194 1 2.72 10.86 29.87
195 1 2.72 8.15 5.43
196 1 2.72 5.43 8.15
197 1 2.72 16.29 24.44
198 1 2.72 5.43 2.72
199 1 2.72 21.72 19.01
200 1 2.72 16.29 19.01
201 1 2.72 21.72 29.87
202 1 2.72 10.86 8.15
203 1 2.72 13.58 10.86
204 1 2.72 13.58 5.43
205 1 2.72 10.86 13.58
206 1 2.72 29.87 5.43
207 1 2.72 0.0 2.72
208 1 2.72 13.58 21.72
209 1 2.72 21.72 24.44
210 1 2.72 2.72 21.72
211 1 2.72 27.16 8.15
212 1 2.72 19.01 21.72
213 1 2.72 24.44 16.29
214 1 3.26 23.9 0.0
215 1 3.26 13.03 0.0
216 1 3.26 2.17 0.0
217 1 3.53 18.19 31.23
218 1 3.53 29.06 31.23
219 1 3.53 7.33 31.23
220 1 4.07 12.22 14.94
221 1 4.07 28.51 25.8
222 1 4.07 31.23 23.08
223 1 4.07 6.79 4.07
224 1 4.07 23.08 9.5
225 1 4.07 4.07 1.36
226 1 4.07 1.36 4.07
227 1 4.07 17.65 4.07
228 1 4.07 9.5 1.36
229 1 4.07 20.37 1.36
230 1 4.07 4.07 28.51
231 1 4.07 23.08 25.8
232 1 4.07 12.22 4.07
233 1 4.07 25.8 6.79
234 1 4.07 12.22 25.8
235 1 4.07 14.94 6.79
236 1 4.07 9.5 28.51
237 1 4.07 12.22 9.5
238 1 4.07 1.36 20.37
239 1 4.07 14.94 12.22
240 1 4.07 1.36 14.94
241 1 4.07 6.79 25.8
242 1 4.07 4.07 17.65
243 1 4.07 20.37 17.65
244 1 4.07 28.51 14.94
245 1 4.07 31.23 12.22
246 1 4.07 14.94 23.08
247 1 4.07 20.37 6.79
248 1 4.07 23.08 4.07
249 1 4.07 25.8 1.36
250 1 4.07 14.94 1.36
251 1 4.07 25.8 23.08
252 1 4.07 25.8 12.22
253 1 4.07 17.65 14.94
254 1 4.07 31.23 28.51
255 1 4.07 28.51 9.5
256 1 4.07 25.8 28.51
257 1 4.07 12.22 20.37
258 1 4.07 14.94 17.65
259 1 4.07 14.94 28.51
260 1 4.07 31.23 1.36
261 1 4.07 17.65 20.37
262 1 4.07 20.37 28.51
263 1 4.07 28.51 4.07
264 1 4.07 4.07 12.22
265 1 4.07 6.79 20.37
266 1 4.07 9.5 6.79
267 1 4.07 23.08 20.37
268 1 4.07 20.37 12.22
269 1 4.07 31.23 6.79
270 1 4.07 9.5 17.65
271 1 4.07 6.79 14.94
272 1 4.07 17.65 25.8
273 1 4.07 20.37 23.08
274 1 4.07 9.5 12.22
275 1 4.07 4.07 23.08
276 1 4.07 23.08 14.94
277 1 4.07 1.36 9.5
278 1 4.07 17.65 9.5
279 1 4.07 9.5 23.08
280 1 4.07 31.23 17.65
281 1 4.07 28.51 20.37
282 1 4.07 6.79 9.5
283 1 4.07 4.07 6.79
284 1 4.07 25.8 17.65
285 1 4.07 1.36 25.8
286 1 4.62 0.81 31.23
287 1 4.62 11.68 31.23
288 1 4.62 22.54 31.23
289 1 4.89 22.27 0.0
290 1 4.89 11.41 0.0
291 1 4.89 0.54 0.0
292 1 5.43 16.29 21.72
293 1 5.43 10.86 27.16
294 1 5.43 8.15 29.87
295 1 5.43 5.43 27.16
296 1 5.43 2.72 8.15
297 1 5.43 13.58 24.44
298 1 5.43 2.72 29.87
299 1 5.43 27.16 21.72
300 1 5.43 29.87 24.44
301 1 5.43 5.43 5.43
302 1 5.43 0.0 21.72
303 1 5.43 24.44 24.44
304 1 5.43 21.72 21.72
305 1 5.43 19.01 24.44
306 1 5.43 0.0 27.16
307 1 5.43 13.58 29.87
308 1 5.43 19.01 2.72
309 1 5.43 16.29 27.16
310 1 5.43 19.01 29.87
311 1 5.43 29.87 2.72
312 1 5.43 24.44 2.72
313 1 5.43 21.72 27.16
314 1 5.43 24.44 29.87
315 1 5.43 0.0 5.43
316 1 5.43 10.86 21.72
317 1 5.43 8.15 8.15
318 1 5.43 16.29 5.43
319 1 5.43 29.87 29.87
320 1 5.43 8.15 24.44
321 1 5.43 19.01 8.15
322 1 5.43 5.43 21.72
323 1 5.43 13.58 2.72
324 1 5.43 10.86 5.43
325 1 5.43 2.72 24.44
326 1 5.43 29.87 8.15
327 1 5.43 2.72 2.72
328 1 5.43 0.0 10.86
329 1 5.43 16.29 16.29
330 1 5.43 8.15 19.01
331 1 5.43 19.01 19.01
332 1 5.43 27.16 5.43
333 1 5.43 24.44 19.01
334 1 5.43 5.43 10.86
335 1 5.43 8.15 13.58
336 1 5.43 27.16 16.29
337 1 5.43 29.87 19.01
338 1 5.43 16.29 10.86
339 1 5.43 13.58 13.58
340 1 5.43 21.72 16.29
341 1 5.43 10.86 10.86
342 1 5.43 13.58 8.15
343 1 5.43 24.44 8.15
344 1 5.43 21.72 5.43
345 1 5.43 0.0 16.29
346 1 5.43 2.72 13.58
347 1 5.43 10.86 16.29
348 1 5.43 13.58 19.01
349 1 5.43 24.44 13.58
350 1 5.43 5.43 16.29
351 1 5.43 8.15 2.72
352 1 5.43 2.72 19.01
353 1 5.43 29.87 13.58
354 1 5.43 27.16 10.86
355 1 5.43 21.72 10.86
356 1 5.43 19.01 13.58
357 1 5.43 27.16 27.16
358 1 5.97 4.89 0.0
359 1 5.97 15.75 0.0
360 1 5.97 26.61 0.0
361 1 6.25 31.77 31.23
362 1 6.25 10.05 31.23
363 1 6.25 20.91 31.23
364 1 6.79 17.65 28.51
365 1 6.79 6.79 17.65
366 1 6.79 31.23 25.8
367 1 6.79 9.5 9.5
368 1 6.79 14.94 20.37
369 1 6.79 28.51 23.08
370 1 6.79 9.5 20.37
371 1 6.79 31.23 20.37
372 1 6.79 31.23 4.07
373 1 6.79 28.51 1.36
374 1 6.79 4.07 25.8
375 1 6.79 25.8 9.5
376 1 6.79 12.22 6.79
377 1 6.79 28.51 17.65
378 1 6.79 28.51 6.79
379 1 6.79 6.79 6.79
380 1 6.79 9.5 4.07
381 1 6.79 6.79 23.08
382 1 6.79 14.94 4.07
383 1 6.79 1.36 23.08
384 1 6.79 23.08 6.79
385 1 6.79 12.22 1.36
386 1 6.79 23.08 23.08
387 1 6.79 31.23 9.5
388 1 6.79 1.36 17.65
389 1 6.79 20.37 14.94
390 1 6.79 12.22 28.51
391 1 6.79 4.07 20.37
392 1 6.79 23.08 17.65
393 1 6.79 12.22 17.65
394 1 6.79 25.8 20.37
395 1 6.79 25.8 25.8
396 1 6.79 14.94 9.5
397 1 6.79 1.36 28.51
398 1 6.79 17.65 1.36
399 1 6.79 9.5 14.94
400 1 6.79 23.08 1.36
401 1 6.79 25.8 4.07
402 1 6.79 28.51 28.51
403 1 6.79 6.79 1.36
404 1 6.79 9.5 25.8
405 1 6.79 6.79 28.51
406 1 6.79 17.65 17.65
407 1 6.79 12.22 12.22
408 1 6.79 28.51 12.22
409 1 6.79 31.23 14.94
410 1 6.79 1.36 12.22
411 1 6.79 20.37 20.37
412 1 6.79 14.94 14.94
413 1 6.79 25.8 14.94
414 1 6.79 23.08 12.22
415 1 6.79 4.07 14.94
416 1 6.79 1.36 1.36
417 1 6.79 17.65 12.22
418 1 6.79 4.07 9.5
419 1 6.79 14.94 25.8
420 1 6.79 20.37 9.5
421 1 6.79 12.22 23.08
422 1 6.79 17.65 6.79
423 1 6.79 17.65 23.08
424 1 6.79 1.36 6.79
425 1 6.79 20.37 25.8
426 1 6.79 23.08 28.51
427 1 6.79 20.37 4.07
428 1 6.79 4.07 4.07
429 1 6.79 6.79 12.22
430 1 7.33 25.25 31.23
431 1 7.33 14.39 31.23
432 1 7.33 3.53 31.23
433 1 7.6 24.98 0.0
434 1 7.6 3.26 0.0
435 1 7.6 14.12 0.0
436 1 8.15 24.44 21.72
437 1 8.15 16.29 29.87
438 1 8.15 5.43 2.72
439 1 8.15 21.72 29.87
440 1 8.15 8.15 21.72
441 1 8.15 27.16 29.87
442 1 8.15 21.72 19.01
443 1 8.15 19.01 10.86
444 1 8.15 10.86 24.44
445 1 8.15 13.58 21.72
446 1 8.15 13.58 10.86
447 1 8.15 10.86 13.58
448 1 8.15 19.01 16.29
449 1 8.15 24.44 16.29
450 1 8.15 2.72 10.86
451 1 8.15 27.16 24.44
452 1 8.15 16.29 19.01
453 1 8.15 19.01 5.43
454 1 8.15 16.29 13.58
455 1 8.15 16.29 8.15
456 1 8.15 5.43 8.15
457 1 8.15 5.43 19.01
458 1 8.15 8.15 16.29
459 1 8.15 19.01 27.16
460 1 8.15 8.15 5.43
461 1 8.15 29.87 27.16
462 1 8.15 0.0 24.44
463 1 8.15 10.86 19.01
464 1 8.15 13.58 16.29
465 1 8.15 21.72 24.44
466 1 8.15 29.87 21.72
467 1 8.15 13.58 5.43
468 1 8.15 0.0 13.58
469 1 8.15 24.44 5.43
470 1 8.15 5.43 29.87
471 1 8.15 27.16 2.72
472 1 8.15 8.15 27.16
473 1 8.15 10.86 29.87
474 1 8.15 21.72 2.72
475 1 8.15 0.0 8.15
476 1 8.15 2.72 16.29
477 1 8.15 8.15 10.86
478 1 8.15 0.0 2.72
479 1 8.15 0.0 19.01
480 1 8.15 2.72 27.16
481 1 8.15 27.16 13.58
482 1 8.15 16.29 2.72
483 1 8.15 2.72 21.72
484 1 8.15 10.86 8.15
485 1 8.15 5.43 13.58
486 1 8.15 10.86 2.72
487 1 8.15 21.72 8.15
488 1 8.15 16.29 24.44
489 1 8.15 19.01 21.72
490 1 8.15 24.44 27.16
491 1 8.15 27.16 8.15
492 1 8.15 29.87 5.43
493 1 8.15 24.44 10.86
494 1 8.15 0.0 29.87
495 1 8.15 21.72 13.58
496 1 8.15 2.72 5.43
497 1 8.15 13.58 27.16
498 1 8.15 29.87 16.29
499 1 8.15 27.16 19.01
500 1 8.15 29.87 10.86
501 1 8.15 5.43 24.44
502 1 8.69 18.47 0.0
503 1 8.69 7.6 0.0
504 1 8.69 29.33 0.0
505 1 8.96 1.9 31.23
506 1 8.96 23.62 31.23
507 1 8.96 12.76 31.23
508 1 9.5 20.37 12.22
509 1 9.5 25.8 6.79
510 1 9.5 23.08 9.5
511 1 9.5 12.22 4.07
512 1 9.5 17.65 9.5
513 1 9.5 20.37 6.79
514 1 9.5 17.65 4.07
515 1 9.5 12.22 25.8
516 1 9.5 31.23 12.22
517 1 9.5 12.22 14.94
518 1 9.5 25.8 28.51
519 1 9.5 14.94 23.08
520 1 9.5 17.65 14.94
521 1 9.5 4.07 12.22
522 1 9.5 20.37 1.36
523 1 9.5 1.36 4.07
524 1 9.5 28.51 9.5
525 1 9.5 31.23 6.79
526 1 9.5 12.22 9.5
527 1 9.5 14.94 6.79
528 1 9.5 28.51 4.07
529 1 9.5 31.23 1.36
530 1 9.5 1.36 9.5
531 1 9.5 4.07 1.36
532 1 9.5 14.94 1.36
533 1 9.5 9.5 1.36
534 1 9.5 6.79 4.07
535 1 9.5 6.79 9.5
536 1 9.5 25.8 1.36
537 1 9.5 9.5 6.79
538 1 9.5 23.08 4.07
539 1 9.5 4.07 6.79
540 1 9.5 1.36 14.94
541 1 9.5 17.65 25.8
542 1 9.5 1.36 25.8
543 1 9.5 9.5 28.51
544 1 9.5 31.23 28.51
545 1 9.5 6.79 25.8
546 1 9.5 9.5 23.08
547 1 9.5 28.51 14.94
548 1 9.5 4.07 23.08
549 1 9.5 4.07 28.51
550 1 9.5 4.07 17.65
551 1 9.5 1.36 20.37
552 1 9.5 28.51 20.37
553 1 9.5 31.23 17.65
554 1 9.5 9.5 17.65
555 1 9.5 6.79 20.37
556 1 9.5 20.37 28.51
557 1 9.5 23.08 20.37
558 1 9.5 20.37 23.08
559 1 9.5 14.94 28.51
560 1 9.5 9.5 12.22
561 1 9.5 6.79 14.94
562 1 9.5 25.8 12.22
563 1 9.5 14.94 17.65
564 1 9.5 28.51 25.8
565 1 9.5 31.23 23.08
566 1 9.5 23.08 25.8
567 1 9.5 12.22 20.37
568 1 9.5 25.8 17.65
569 1 9.5 25.8 23.08
570 1 9.5 20.37 17.65
571 1 9.5 17.65 20.37
572 1 9.5 23.08 14.94
573 1 9.5 14.94 12.22
574 1 10.05 17.11 31.23
575 1 10.05 27.97 31.23
576 1 10.05 6.25 31.23
577 1 10.32 27.7 0.0
578 1 10.32 5.97 0.0
579 1 10.32 16.84 0.0
580 1 10.86 29.87 29.87
581 1 10.86 24.44 24.44
582 1 10.86 29.87 2.72
583 1 10.86 19.01 24.44
584 1 10.86 0.0 16.29
585 1 10.86 27.16 27.16
586 1 10.86 13.58 24.44
587 1 10.86 13.58 29.87
588 1 10.86 10.86 27.16
589 1 10.86 27.16 5.43
590 1 10.86 29.87 8.15
591 1 10.86 8.15 29.87
592 1 10.86 5.43 27.16
593 1 10.86 19.01 19.01
594 1 10.86 16.29 16.29
595 1 10.86 8.15 24.44
596 1 10.86 16.29 10.86
597 1 10.86 21.72 21.72
598 1 10.86 8.15 2.72
599 1 10.86 27.16 16.29
600 1 10.86 29.87 19.01
601 1 10.86 19.01 8.15
602 1 10.86 16.29 5.43
603 1 10.86 10.86 10.86
604 1 10.86 0.0 21.72
605 1 10.86 13.58 13.58
606 1 10.86 2.72 24.44
607 1 10.86 24.44 8.15
608 1 10.86 21.72 5.43
609 1 10.86 5.43 21.72
610 1 10.86 19.01 13.58
611 1 10.86 2.72 2.72
612 1 10.86 2.72 13.58
613 1 10.86 19.01 2.72
614 1 10.86 0.0 10.86
615 1 10.86 21.72 27.16
616 1 10.86 19.01 29.87
617 1 10.86 16.29 21.72
618 1 10.86 8.15 13.58
619 1 10.86 21.72 16.29
620 1 10.86 10.86 5.43
621 1 10.86 13.58 8.15
622 1 10.86 29.87 13.58
623 1 10.86 27.16 10.86
624 1 10.86 10.86 21.72
625 1 10.86 13.58 2.72
626 1 10.86 21.72 10.86
627 1 10.86 5.43 10.86
628 1 10.86 24.44 19.01
629 1 10.86 16.29 27.16
630 1 10.86 24.44 29.87
631 1 10.86 2.72 19.01
632 1 10.86 24.44 2.72
633 1 10.86 29.87 24.44
634 1 10.86 10.86 16.29
635 1 10.86 13.58 19.01
636 1 10.86 0.0 27.16
637 1 10.86 2.72 29.87
638 1 10.86 27.16 21.72
639 1 10.86 5.43 5.43
640 1 10.86 8.15 8.15
641 1 10.86 8.15 19.01
642 1 10.86 5.43 16.29
643 1 10.86 2.72 8.15
644 1 10.86 0.0 5.43
645 1 10.86 24.44 13.58
646 1 11.41 10.32 0.0
647 1 11.41 -0.54 0.0
648 1 11.41 21.18 0.0
649 1 11.68 15.48 31.23
650 1 11.68 26.34 31.23
651 1 11.68 4.62 31.23
652 1 12.22 6.79 1.36
653 1 12.22 28.51 17.65
654 1 12.22 9.5 9.5
655 1 12.22 28.51 28.51
656 1 12.22 12.22 23.08
657 1 12.22 14.94 14.94
658 1 12.22 20.37 20.37
659 1 12.22 17.65 28.51
660 1 12.22 25.8 4.07
661 1 12.22 23.08 1.36
662 1 12.22 31.23 20.37
663 1 12.22 12.22 6.79
664 1 12.22 25.8 25.8
665 1 12.22 1.36 1.36
666 1 12.22 12.22 28.51
667 1 12.22 6.79 17.65
668 1 12.22 14.94 9.5
669 1 12.22 9.5 14.94
670 1 12.22 14.94 25.8
671 1 12.22 23.08 28.51
672 1 12.22 6.79 12.22
673 1 12.22 25.8 9.5
674 1 12.22 23.08 17.65
675 1 12.22 23.08 6.79
676 1 12.22 31.23 4.07
677 1 12.22 6.79 6.79
678 1 12.22 9.5 20.37
679 1 12.22 12.22 12.22
680 1 12.22 28.51 6.79
681 1 12.22 9.5 4.07
682 1 12.22 28.51 1.36
683 1 12.22 23.08 23.08
684 1 12.22 25.8 20.37
685 1 12.22 20.37 9.5
686 1 12.22 1.36 17.65
687 1 12.22 4.07 20.37
688 1 12.22 14.94 20.37
689 1 12.22 31.23 25.8
690 1 12.22 4.07 25.8
691 1 12.22 14.94 4.07
692 1 12.22 12.22 17.65
693 1 12.22 12.22 1.36
694 1 12.22 1.36 12.22
695 1 12.22 1.36 28.51
696 1 12.22 4.07 14.94
697 1 12.22 6.79 28.51
698 1 12.22 1.36 23.08
699 1 12.22 17.65 12.22
700 1 12.22 17.65 17.65
701 1 12.22 4.07 4.07
702 1 12.22 1.36 6.79
703 1 12.22 17.65 6.79
704 1 12.22 23.08 12.22
705 1 12.22 20.37 14.94
706 1 12.22 25.8 14.94
707 1 12.22 6.79 23.08
708 1 12.22 9.5 25.8
709 1 12.22 28.51 23.08
710 1 12.22 17.65 1.36
711 1 12.22 17.65 23.08
712 1 12.22 20.37 4.07
713 1 12.22 31.23 14.94
714 1 12.22 28.51 12.22
715 1 12.22 4.07 9.5
716 1 12.22 31.23 9.5
717 1 12.22 20.37 25.8
718 1 12.76 30.69 31.23
719 1 12.76 19.82 31.23
720 1 12.76 8.96 31.23
721 1 13.03 30.41 0.0
722 1 13.03 19.55 0.0
723 1 13.03 8.69 0.0
724 1 13.58 16.29 13.58
725 1 13.58 16.29 24.44
726 1 13.58 19.01 27.16
727 1 13.58 29.87 21.72
728 1 13.58 10.86 8.15
729 1 13.58 16.29 8.15
730 1 13.58 29.87 10.86
731 1 13.58 13.58 21.72
732 1 13.58 27.16 19.01
733 1 13.58 10.86 24.44
734 1 13.58 16.29 29.87
735 1 13.58 5.43 13.58
736 1 13.58 29.87 16.29
737 1 13.58 19.01 10.86
738 1 13.58 27.16 13.58
739 1 13.58 0.0 24.44
740 1 13.58 21.72 19.01
741 1 13.58 19.01 5.43
742 1 13.58 5.43 24.44
743 1 13.58 16.29 19.01
744 1 13.58 2.72 16.29
745 1 13.58 0.0 19.01
746 1 13.58 21.72 8.15
747 1 13.58 19.01 16.29
748 1 13.58 19.01 21.72
749 1 13.58 13.58 27.16
750 1 13.58 10.86 29.87
751 1 13.58 10.86 19.01
752 1 13.58 24.44 5.43
753 1 13.58 27.16 29.87
754 1 13.58 13.58 16.29
755 1 13.58 8.15 10.86
756 1 13.58 21.72 29.87
757 1 13.58 27.16 2.72
758 1 13.58 5.43 29.87
759 1 13.58 2.72 27.16
760 1 13.58 29.87 5.43
761 1 13.58 8.15 27.16
762 1 13.58 27.16 8.15
763 1 13.58 13.58 5.43
764 1 13.58 0.0 29.87
765 1 13.58 10.86 13.58
766 1 13.58 29.87 27.16
767 1 13.58 16.29 2.72
768 1 13.58 5.43 8.15
769 1 13.58 8.15 5.43
770 1 13.58 21.72 13.58
771 1 13.58 24.44 10.86
772 1 13.58 24.44 21.72
773 1 13.58 8.15 16.29
774 1 13.58 21.72 2.72
775 1 13.58 2.72 5.43
776 1 13.58 0.0 8.15
777 1 13.58 21.72 24.44
778 1 13.58 8.15 21.72
779 1 13.58 0.0 2.72
780 1 13.58 5.43 2.72
781 1 13.58 10.86 2.72
782 1 13.58 2.72 10.86
783 1 13.58 13.58 10.86
784 1 13.58 5.43 19.01
785 1 13.58 0.0 13.58
786 1 13.58 24.44 16.29
787 1 13.58 2.72 21.72
788 1 13.58 27.16 24.44
789 1 13.58 24.44 27.16
790 1 14.12 13.03 0.0
791 1 14.12 2.17 0.0
792 1 14.12 23.9 0.0
793 1 14.39 7.33 31.23
794 1 14.39 18.19 31.23
795 1 14.39 29.06 31.23
796 1 14.94 20.37 12.22
797 1 14.94 17.65 14.94
798 1 14.94 14.94 1.36
799 1 14.94 4.07 28.51
800 1 14.94 9.5 28.51
801 1 14.94 14.94 23.08
802 1 14.94 12.22 4.07
803 1 14.94 1.36 4.07
804 1 14.94 25.8 23.08
805 1 14.94 17.65 9.5
806 1 14.94 20.37 6.79
807 1 14.94 31.23 28.51
808 1 14.94 25.8 12.22
809 1 14.94 12.22 14.94
810 1 14.94 23.08 25.8
811 1 14.94 6.79 4.07
812 1 14.94 28.51 25.8
813 1 14.94 4.07 12.22
814 1 14.94 17.65 4.07
815 1 14.94 20.37 23.08
816 1 14.94 9.5 1.36
817 1 14.94 17.65 25.8
818 1 14.94 23.08 9.5
819 1 14.94 31.23 23.08
820 1 14.94 9.5 12.22
821 1 14.94 25.8 28.51
822 1 14.94 12.22 25.8
823 1 14.94 28.51 9.5
824 1 14.94 1.36 14.94
825 1 14.94 4.07 1.36
826 1 14.94 14.94 12.22
827 1 14.94 6.79 14.94
828 1 14.94 25.8 6.79
829 1 14.94 12.22 20.37
830 1 14.94 14.94 28.51
831 1 14.94 1.36 9.5
832 1 14.94 28.51 14.94
833 1 14.94 4.07 6.79
834 1 14.94 31.23 12.22
835 1 14.94 9.5 6.79
836 1 14.94 31.23 17.65
837 1 14.94 9.5 23.08
838 1 14.94 28.51 20.37
839 1 14.94 14.94 17.65
840 1 14.94 4.07 23.08
841 1 14.94 1.36 25.8
842 1 14.94 1.36 20.37
843 1 14.94 6.79 9.5
844 1 14.94 4.07 17.65
845 1 14.94 20.37 1.36
846 1 14.94 23.08 4.07
847 1 14.94 25.8 1.36
848 1 14.94 9.5 17.65
849 1 14.94 20.37 17.65
850 1 14.94 6.79 20.37
851 1 14.94 31.23 1.36
852 1 14.94 28.51 4.07
853 1 14.94 12.22 9.5
854 1 14.94 23.08 20.37
855 1 14.94 25.8 17.65
856 1 14.94 6.79 25.8
857 1 14.94 14.94 6.79
858 1 14.94 31.23 6.79
859 1 14.94 23.08 14.94
860 1 14.94 20.37 28.51
861 1 14.94 17.65 20.37
862 1 15.48 11.68 31.23
863 1 15.48 22.54 31.23
864 1 15.48 0.81 31.23
865 1 15.75 0.54 0.0
866 1 15.75 22.27 0.0
867 1 15.75 11.41 0.0
868 1 16.29 27.16 21.72
869 1 16.29 29.87 24.44
870 1 16.29 29.87 8.15
871 1 16.29 27.16 5.43
872 1 16.29 16.29 5.43
873 1 16.29 10.86 10.86
874 1 16.29 2.72 8.15
875 1 16.29 19.01 8.15
876 1 16.29 10.86 16.29
877 1 16.29 16.29 10.86
878 1 16.29 13.58 19.01
879 1 16.29 0.0 27.16
880 1 16.29 2.72 29.87
881 1 16.29 13.58 13.58
882 1 16.29 0.0 5.43
883 1 16.29 2.72 19.01
884 1 16.29 24.44 24.44
885 1 16.29 0.0 16.29
886 1 16.29 0.0 10.86
887 1 16.29 2.72 13.58
888 1 16.29 8.15 2.72
889 1 16.29 24.44 2.72
890 1 16.29 8.15 8.15
891 1 16.29 5.43 5.43
892 1 16.29 29.87 19.01
893 1 16.29 29.87 2.72
894 1 16.29 27.16 16.29
895 1 16.29 5.43 21.72
896 1 16.29 19.01 19.01
897 1 16.29 2.72 2.72
898 1 16.29 8.15 24.44
899 1 16.29 21.72 21.72
900 1 16.29 8.15 29.87
901 1 16.29 5.43 16.29
902 1 16.29 19.01 13.58
903 1 16.29 19.01 24.44
904 1 16.29 16.29 21.72
905 1 16.29 21.72 27.16
906 1 16.29 21.72 10.86
907 1 16.29 10.86 27.16
908 1 16.29 13.58 29.87
909 1 16.29 24.44 29.87
910 1 16.29 24.44 13.58
911 1 16.29 19.01 2.72
912 1 16.29 13.58 8.15
913 1 16.29 10.86 5.43
914 1 16.29 21.72 16.29
915 1 16.29 16.29 27.16
916 1 16.29 8.15 19.01
917 1 16.29 19.01 29.87
918 1 16.29 21.72 5.43
919 1 16.29 0.0 21.72
920 1 16.29 2.72 24.44
921 1 16.29 5.43 27.16
922 1 16.29 16.29 16.29
923 1 16.29 27.16 10.86
924 1 16.29 13.58 2.72
925 1 16.29 24.44 8.15
926 1 16.29 27.16 27.16
927 1 16.29 8.15 13.58
928 1 16.29 5.43 10.86
929 1 16.29 24.44 19.01
930 1 16.29 29.87 13.58
931 1 16.29 10.86 21.72
932 1 16.29 13.58 24.44
933 1 16.29 29.87 29.87
934 1 16.84 15.75 0.0
935 1 16.84 4.89 0.0
936 1 16.84 26.61 0.0
937 1 17.11 10.05 31.23
938 1 17.11 20.91 31.23
939 1 17.11 31.77 31.23
940 1 17.65 17.65 1.36
941 1 17.65 6.79 17.65
942 1 17.65 9.5 20.37
943 1 17.65 9.5 14.94
944 1 17.65 6.79 12.22
945 1 17.65 28.51 1.36
946 1 17.65 31.23 4.07
947 1 17.65 23.08 17.65
948 1 17.65 4.07 9.5
949 1 17.65 25.8 4.07
950 1 17.65 12.22 6.79
951 1 17.65 12.22 23.08
952 1 17.65 14.94 25.8
953 1 17.65 20.37 4.07
954 1 17.65 1.36 17.65
955 1 17.65 17.65 28.51
956 1 17.65 6.79 1.36
957 1 17.65 9.5 4.07
958 1 17.65 6.79 6.79
959 1 17.65 6.79 28.51
960 1 17.65 9.5 9.5
961 1 17.65 1.36 28.51
962 1 17.65 28.51 17.65
963 1 17.65 31.23 20.37
964 1 17.65 12.22 12.22
965 1 17.65 14.94 14.94
966 1 17.65 31.23 25.8
967 1 17.65 28.51 23.08
968 1 17.65 1.36 23.08
969 1 17.65 4.07 20.37
970 1 17.65 4.07 25.8
971 1 17.65 12.22 28.51
972 1 17.65 28.51 12.22
973 1 17.65 17.65 23.08
974 1 17.65 31.23 9.5
975 1 17.65 14.94 20.37
976 1 17.65 1.36 12.22
977 1 17.65 23.08 6.79
978 1 17.65 25.8 9.5
979 1 17.65 28.51 6.79
980 1 17.65 4.07 4.07
981 1 17.65 12.22 17.65
982 1 17.65 20.37 20.37
983 1 17.65 17.65 17.65
984 1 17.65 23.08 28.51
985 1 17.65 1.36 1.36
986 1 17.65 4.07 14.94
987 1 17.65 28.51 28.51
988 1 17.65 14.94 9.5
989 1 17.65 25.8 20.37
990 1 17.65 31.23 14.94
991 1 17.65 20.37 9.5
992 1 17.65 17.65 6.79
993 1 17.65 17.65 12.22
994 1 17.65 20.37 14.94
995 1 17.65 12.22 1.36
996 1 17.65 14.94 4.07
997 1 17.65 25.8 25.8
998 1 17.65 23.08 23.08
999 1 17.65 1.36 6.79
1000 1 17.65 23.08 1.36
1001 1 17.65 6.79 23.08
1002 1 17.65 9.5 25.8
1003 1 17.65 23.08 12.22
1004 1 17.65 20.37 25.8
1005 1 17.65 25.8 14.94
1006 1 18.19 14.39 31.23
1007 1 18.19 3.53 31.23
1008 1 18.19 25.25 31.23
1009 1 18.47 3.26 0.0
1010 1 18.47 14.12 0.0
1011 1 18.47 24.98 0.0
1012 1 19.01 0.0 2.72
1013 1 19.01 8.15 10.86
1014 1 19.01 10.86 13.58
1015 1 19.01 2.72 10.86
1016 1 19.01 24.44 5.43
1017 1 19.01 21.72 8.15
1018 1 19.01 21.72 24.44
1019 1 19.01 5.43 29.87
1020 1 19.01 19.01 5.43
1021 1 19.01 10.86 29.87
1022 1 19.01 16.29 8.15
1023 1 19.01 8.15 27.16
1024 1 19.01 2.72 5.43
1025 1 19.01 16.29 29.87
1026 1 19.01 0.0 8.15
1027 1 19.01 13.58 10.86
1028 1 19.01 24.44 21.72
1029 1 19.01 29.87 5.43
1030 1 19.01 8.15 5.43
1031 1 19.01 5.43 2.72
1032 1 19.01 21.72 19.01
1033 1 19.01 27.16 13.58
1034 1 19.01 29.87 10.86
1035 1 19.01 5.43 8.15
1036 1 19.01 10.86 8.15
1037 1 19.01 19.01 16.29
1038 1 19.01 13.58 27.16
1039 1 19.01 5.43 13.58
1040 1 19.01 16.29 19.01
1041 1 19.01 2.72 21.72
1042 1 19.01 0.0 24.44
1043 1 19.01 13.58 5.43
1044 1 19.01 19.01 27.16
1045 1 19.01 13.58 16.29
1046 1 19.01 8.15 16.29
1047 1 19.01 19.01 21.72
1048 1 19.01 24.44 16.29
1049 1 19.01 27.16 29.87
1050 1 19.01 29.87 21.72
1051 1 19.01 19.01 10.86
1052 1 19.01 16.29 13.58
1053 1 19.01 16.29 24.44
1054 1 19.01 13.58 21.72
1055 1 19.01 27.16 19.01
1056 1 19.01 29.87 16.29
1057 1 19.01 27.16 24.44
1058 1 19.01 27.16 8.15
1059 1 19.01 5.43 19.01
1060 1 19.01 10.86 24.44
1061 1 19.01 2.72 27.16
1062 1 19.01 0.0 13.58
1063 1 19.01 2.72 16.29
1064 1 19.01 10.86 19.01
1065 1 19.01 27.16 2.72
1066 1 19.01 0.0 29.87
1067 1 19.01 8.15 21.72
1068 1 19.01 5.43 24.44
1069 1 19.01 24.44 27.16
1070 1 19.01 21.72 13.58
1071 1 19.01 21.72 29.87
1072 1 19.01 10.86 2.72
1073 1 19.01 16.29 2.72
1074 1 19.01 21.72 2.72
1075 1 19.01 24.44 10.86
1076 1 19.01 29.87 27.16
1077 1 19.01 0.0 19.01
1078 1 19.55 29.33 0.0
1079 1 19.55 7.6 0.0
1080 1 19.55 18.47 0.0
1081 1 19.82 12.76 31.23
1082 1 19.82 1.9 31.23
1083 1 19.82 23.62 31.23
1084 1 20.37 12.22 25.8
1085 1 20.37 25.8 17.65
1086 1 20.37 20.37 17.65
1087 1 20.37 12.22 20.37
1088 1 20.37 25.8 23.08
1089 1 20.37 17.65 4.07
1090 1 20.37 4.07 12.22
1091 1 20.37 14.94 17.65
1092 1 20.37 14.94 23.08
1093 1 20.37 17.65 25.8
1094 1 20.37 17.65 20.37
1095 1 20.37 12.22 4.07
1096 1 20.37 4.07 1.36
1097 1 20.37 31.23 28.51
1098 1 20.37 23.08 20.37
1099 1 20.37 28.51 9.5
1100 1 20.37 1.36 14.94
1101 1 20.37 25.8 6.79
1102 1 20.37 23.08 9.5
1103 1 20.37 31.23 1.36
1104 1 20.37 20.37 1.36
1105 1 20.37 25.8 12.22
1106 1 20.37 6.79 20.37
1107 1 20.37 28.51 4.07
1108 1 20.37 23.08 14.94
1109 1 20.37 20.37 23.08
1110 1 20.37 1.36 9.5
1111 1 20.37 31.23 6.79
1112 1 20.37 23.08 25.8
1113 1 20.37 4.07 6.79
1114 1 20.37 1.36 4.07
1115 1 20.37 31.23 23.08
1116 1 20.37 25.8 28.51
1117 1 20.37 14.94 6.79
1118 1 20.37 28.51 20.37
1119 1 20.37 9.5 6.79
1120 1 20.37 31.23 17.65
1121 1 20.37 6.79 14.94
1122 1 20.37 12.22 9.5
1123 1 20.37 14.94 1.36
1124 1 20.37 6.79 9.5
1125 1 20.37 1.36 20.37
1126 1 20.37 20.37 28.51
1127 1 20.37 28.51 25.8
1128 1 20.37 6.79 25.8
1129 1 20.37 9.5 23.08
1130 1 20.37 17.65 9.5
1131 1 20.37 20.37 6.79
1132 1 20.37 9.5 17.65
1133 1 20.37 12.22 14.94
1134 1 20.37 14.94 12.22
1135 1 20.37 14.94 28.51
1136 1 20.37 9.5 1.36
1137 1 20.37 6.79 4.07
1138 1 20.37 17.65 14.94
1139 1 20.37 20.37 12.22
1140 1 20.37 4.07 23.08
1141 1 20.37 9.5 12.22
1142 1 20.37 4.07 17.65
1143 1 20.37 31.23 12.22
1144 1 20.37 28.51 14.94
1145 1 20.37 9.5 28.51
1146 1 20.37 4.07 28.51
1147 1 20.37 23.08 4.07
1148 1 20.37 25.8 1.36
1149 1 20.37 1.36 25.8
1150 1 20.91 17.11 31.23
1151 1 20.91 6.25 31.23
1152 1 20.91 27.97 31.23
1153 1 21.18 16.84 0.0
1154 1 21.18 5.97 0.0
1155 1 21.18 27.7 0.0
1156 1 21.72 29.87 29.87
1157 1 21.72 21.72 5.43
1158 1 21.72 24.44 8.15
1159 1 21.72 10.86 5.43
1160 1 21.72 13.58 8.15
1161 1 21.72 5.43 10.86
1162 1 21.72 8.15 13.58
1163 1 21.72 10.86 21.72
1164 1 21.72 8.15 19.01
1165 1 21.72 13.58 24.44
1166 1 21.72 27.16 27.16
1167 1 21.72 27.16 5.43
1168 1 21.72 21.72 10.86
1169 1 21.72 24.44 13.58
1170 1 21.72 29.87 8.15
1171 1 21.72 2.72 19.01
1172 1 21.72 16.29 10.86
1173 1 21.72 21.72 27.16
1174 1 21.72 24.44 29.87
1175 1 21.72 0.0 5.43
1176 1 21.72 19.01 19.01
1177 1 21.72 2.72 29.87
1178 1 21.72 19.01 2.72
1179 1 21.72 29.87 2.72
1180 1 21.72 2.72 2.72
1181 1 21.72 8.15 2.72
1182 1 21.72 13.58 2.72
1183 1 21.72 24.44 2.72
1184 1 21.72 27.16 21.72
1185 1 21.72 29.87 24.44
1186 1 21.72 2.72 8.15
1187 1 21.72 24.44 19.01
1188 1 21.72 5.43 16.29
1189 1 21.72 5.43 21.72
1190 1 21.72 0.0 21.72
1191 1 21.72 19.01 29.87
1192 1 21.72 16.29 21.72
1193 1 21.72 10.86 16.29
1194 1 21.72 19.01 24.44
1195 1 21.72 16.29 27.16
1196 1 21.72 2.72 24.44
1197 1 21.72 21.72 16.29
1198 1 21.72 5.43 5.43
1199 1 21.72 19.01 8.15
1200 1 21.72 10.86 27.16
1201 1 21.72 24.44 24.44
1202 1 21.72 21.72 21.72
1203 1 21.72 16.29 5.43
1204 1 21.72 13.58 29.87
1205 1 21.72 10.86 10.86
1206 1 21.72 8.15 24.44
1207 1 21.72 0.0 27.16
1208 1 21.72 2.72 13.58
1209 1 21.72 0.0 10.86
1210 1 21.72 5.43 27.16
1211 1 21.72 8.15 29.87
1212 1 21.72 13.58 19.01
1213 1 21.72 29.87 13.58
1214 1 21.72 29.87 19.01
1215 1 21.72 27.16 16.29
1216 1 21.72 13.58 13.58
1217 1 21.72 8.15 8.15
1218 1 21.72 27.16 10.86
1219 1 21.72 16.29 16.29
1220 1 21.72 19.01 13.58
1221 1 21.72 0.0 16.29
1222 1 22.27 10.32 0.0
1223 1 22.27 21.18 0.0
1224 1 22.27 -0.54 0.0
1225 1 22.54 26.34 31.23
1226 1 22.54 15.48 31.23
1227 1 22.54 4.62 31.23
1228 1 23.08 12.22 12.22
1229 1 23.08 14.94 14.94
1230 1 23.08 20.37 9.5
1231 1 23.08 31.23 25.8
1232 1 23.08 28.51 23.08
1233 1 23.08 31.23 14.94
1234 1 23.08 17.65 12.22
1235 1 23.08 28.51 17.65
1236 1 23.08 31.23 20.37
1237 1 23.08 9.5 25.8
1238 1 23.08 1.36 6.79
1239 1 23.08 4.07 9.5
1240 1 23.08 14.94 20.37
1241 1 23.08 28.51 12.22
1242 1 23.08 23.08 12.22
1243 1 23.08 6.79 1.36
1244 1 23.08 4.07 25.8
1245 1 23.08 28.51 6.79
1246 1 23.08 1.36 17.65
1247 1 23.08 4.07 20.37
1248 1 23.08 9.5 14.94
1249 1 23.08 23.08 1.36
1250 1 23.08 25.8 4.07
1251 1 23.08 20.37 14.94
1252 1 23.08 25.8 14.94
1253 1 23.08 17.65 28.51
1254 1 23.08 6.79 12.22
1255 1 23.08 9.5 4.07
1256 1 23.08 1.36 28.51
1257 1 23.08 1.36 23.08
1258 1 23.08 6.79 28.51
1259 1 23.08 12.22 28.51
1260 1 23.08 12.22 17.65
1261 1 23.08 6.79 6.79
1262 1 23.08 17.65 17.65
1263 1 23.08 12.22 6.79
1264 1 23.08 23.08 23.08
1265 1 23.08 14.94 4.07
1266 1 23.08 12.22 23.08
1267 1 23.08 12.22 1.36
1268 1 23.08 14.94 25.8
1269 1 23.08 17.65 6.79
1270 1 23.08 14.94 9.5
1271 1 23.08 25.8 25.8
1272 1 23.08 17.65 1.36
1273 1 23.08 20.37 4.07
1274 1 23.08 20.37 25.8
1275 1 23.08 6.79 23.08
1276 1 23.08 9.5 9.5
1277 1 23.08 31.23 9.5
1278 1 23.08 6.79 17.65
1279 1 23.08 28.51 1.36
1280 1 23.08 23.08 6.79
1281 1 23.08 25.8 20.37
1282 1 23.08 23.08 17.65
1283 1 23.08 9.5 20.37
1284 1 23.08 23.08 28.51
1285 1 23.08 28.51 28.51
1286 1 23.08 4.07 4.07
1287 1 23.08 1.36 1.36
1288 1 23.08 31.23 4.07
1289 1 23.08 4.07 14.94
1290 1 23.08 1.36 12.22
1291 1 23.08 25.8 9.5
1292 1 23.08 20.37 20.37
1293 1 23.08 17.65 23.08
1294 1 23.62 8.96 31.23
1295 1 23.62 30.69 31.23
1296 1 23.62 19.82 31.23
1297 1 23.9 30.41 0.0
1298 1 23.9 19.55 0.0
1299 1 23.9 8.69 0.0
1300 1 24.44 2.72 5.43
1301 1 24.44 16.29 19.01
1302 1 24.44 16.29 24.44
1303 1 24.44 19.01 21.72
1304 1 24.44 8.15 5.43
1305 1 24.44 5.43 8.15
1306 1 24.44 21.72 24.44
1307 1 24.44 19.01 16.29
1308 1 24.44 24.44 21.72
1309 1 24.44 10.86 19.01
1310 1 24.44 27.16 8.15
1311 1 24.44 29.87 5.43
1312 1 24.44 27.16 24.44
1313 1 24.44 13.58 16.29
1314 1 24.44 13.58 21.72