LAMMPS (16 Mar 2018)
atom_style	atomic
units		metal
dimension	3
boundary	p p p
processors	* * *

# ---------------------------------------------------------
box		tilt large
read_data       data.relax
  triclinic box = (-1.92015 -1.6629 -1.17585) to (90.247 78.1562 74.0783) with tilt (46.0836 46.0836 26.6064)
WARNING: Triclinic box skew is large (../domain.cpp:197)
  4 by 6 by 6 MPI processor grid
  reading atoms ...
  27648 atoms
pair_style	tersoff
pair_coeff	* * SiCGe.tersoff Si(D) Si(D)

#--------------- Simulation control parameters ----------------------------------------------------------
variable	Tlo equal 300
variable	T equal 300    	          				# Kelvin
variable	Thi equal 750
variable	V equal vol             				# A^3
variable	dt equal 0.0005          				# 0.5fs; in picoseconds = 1e-12 s
variable	NRUNNVT equal 100000
variable        NRUNNPT equal 100000
variable	NRUNanneal equal 100000
variable	NRUNNVE equal 100000
variable	thermocalc equal 10000
variable	snapprint equal 1000
variable        Lx equal xhi-xlo
variable        Ly equal yhi-ylo
print           "Lx = ${Lx} A"
Lx = 92.1671262869793 A
print           "Ly = ${Ly} A"
Ly = 79.8190727583326 A
timestep  	${dt}
timestep  	0.0005

# -------------- Print structure -----------------------
dump		snapxyz all custom 100 sisnap.lammpstrj id type x y z

# -------------- Relax Structure at 0K --------------------------
thermo_style    custom step temp pe etotal press pxx pyy pzz lx ly lz fmax fnorm
thermo		1000
#fix		filmrelax all box/relax x 0 y 0 z 0 couple none		#Try different methods to relax different systems
fix             filmrelax all box/relax x 0 y 0 z 0 xy 0 xz 0 yz 0 couple none         #Try different methods to relax different systems
minimize	0.0 1e-11 100000 10000000
WARNING: Using 'neigh_modify every 1 delay 0 check yes' setting during minimization (../min.cpp:168)
Neighbor list info ...
  update every 1 steps, delay 0 steps, check yes
  max neighbors/atom: 2000, page size: 100000
  master list distance cutoff = 5
  ghost atom cutoff = 5
  binsize = 2.5, bins = 74 43 31
  1 neighbor lists, perpetual/occasional/extra = 1 0 0
  (1) pair tersoff, perpetual
      attributes: full, newton on
      pair build: full/bin/atomonly
      stencil: full/bin/3d
      bin: standard
Per MPI rank memory allocation (min/avg/max) = 5.103 | 5.104 | 5.104 Mbytes
Step Temp PotEng TotEng Press Pxx Pyy Pzz Lx Ly Lz Fmax Fnorm 
       0            0   -127998.99   -127998.99    543.43583    543.43583    543.43583    543.43583    92.167126    79.819073    75.254143 1.3535839e-12 5.3714003e-11 
    1000            0   -127999.04   -127999.04 -2.2186993e-09 5.623444e-05 -5.6230994e-05 -1.0102195e-08    92.184185    79.833846    75.268072 5.3983182e-08 9.3478982e-06 
    2000            0   -127999.04   -127999.04 1.0117321e-08 2.3133621e-05 -2.3109684e-05 6.4147395e-09    92.184185    79.833846    75.268072 4.6836342e-08 8.1199899e-06 
    3000            0   -127999.04   -127999.04 -2.2684616e-09 -1.913368e-06 1.9100508e-06 -3.4881872e-09    92.184185    79.833846    75.268072 4.0329854e-08 7.0051921e-06 
    4000            0   -127999.04   -127999.04 -7.6660324e-10 -2.3024856e-05 2.3017115e-05 5.4407566e-09    92.184185    79.833846    75.268072 3.4706088e-08 6.0418508e-06 
    5000            0   -127999.04   -127999.04 -3.4360135e-09 -2.5993982e-05 2.5987792e-05 -4.118218e-09    92.184185    79.833846    75.268072 2.967902e-08 5.1733482e-06 
    6000            0   -127999.04   -127999.04 -3.1071874e-09 -2.6826264e-05 2.682179e-05 -4.8468967e-09    92.184185    79.833846    75.268072 2.5373508e-08 4.4291042e-06 
    7000            0   -127999.04   -127999.04 2.040914e-09 -1.0578599e-05 1.0584661e-05 6.0504002e-11    92.184185    79.833846    75.268072 2.1729303e-08 3.7843743e-06 
    8000            0   -127999.04   -127999.04 3.2637086e-09 1.0809645e-06 -1.0741157e-06 2.9423359e-09    92.184185    79.833846    75.268072 1.8733122e-08 3.2560225e-06 
    9000            0   -127999.04   -127999.04 5.2327193e-10 1.0833047e-05 -1.0832965e-05 1.4882669e-09    92.184185    79.833846    75.268072 1.6175865e-08 2.8024466e-06 
   10000            0   -127999.04   -127999.04 3.2608588e-09 1.2330663e-05 -1.2323744e-05 2.8640753e-09    92.184185    79.833846    75.268072 1.4039233e-08 2.4296614e-06 
   11000            0   -127999.04   -127999.04 3.0528215e-09 1.2698101e-05 -1.2689677e-05 7.3393985e-10    92.184185    79.833846    75.268072 1.2203596e-08 2.1065592e-06 
   12000            0   -127999.04   -127999.04 4.8504042e-09 5.1981461e-06 -5.1915788e-06 7.9838976e-09    92.184185    79.833846    75.268072 1.0601715e-08 1.8299639e-06 
   13000            0   -127999.04   -127999.04 -2.6264436e-09 -4.5255941e-07 4.4879106e-07 -4.1109839e-09    92.184185    79.833846    75.268072 9.1249319e-09 1.5789355e-06 
   14000            0   -127999.04   -127999.04 -2.3114282e-09 -5.1425929e-06 5.1374395e-06 -1.7809221e-09    92.184185    79.833846    75.268072 7.8496022e-09 1.361566e-06 
   15000            0   -127999.04   -127999.04 -2.0933069e-09 -5.8524469e-06 5.8486983e-06 -2.5313033e-09    92.184185    79.833846    75.268072 6.7130994e-09 1.1653029e-06 
   16000            0   -127999.04   -127999.04 9.0734081e-10 -6.0732391e-06 6.0680055e-06 7.9556186e-09    92.184185    79.833846    75.268072 5.8125945e-09 9.9951077e-07 
   17000            0   -127999.04   -127999.04 -7.9466307e-10 -2.6075278e-06 2.6062388e-06 -1.0949909e-09    92.184185    79.833846    75.268072 4.9632396e-09 8.5384418e-07 
   18000            0   -127999.04   -127999.04 1.0529012e-09 1.3943279e-07 -1.3793729e-07 1.6632024e-09    92.184185    79.833846    75.268072 4.2555098e-09 7.3305095e-07 
   19000            0   -127999.04   -127999.04 1.8545792e-09 2.3935594e-06 -2.3889137e-06 9.1808246e-10    92.184185    79.833846    75.268072 3.6940337e-09 6.2959817e-07 
   20000            0   -127999.04   -127999.04 -3.2071505e-10 2.7682159e-06 -2.7655156e-06 -3.6624651e-09    92.184185    79.833846    75.268072 3.2421973e-09 5.4749127e-07 
   21000            0   -127999.04   -127999.04 -2.3087976e-09 2.8468133e-06 -2.8480128e-06 -5.7268353e-09    92.184185    79.833846    75.268072 2.7922784e-09 4.7527228e-07 
   22000            0   -127999.04   -127999.04 -3.5649133e-09 1.3340869e-06 -1.341133e-06 -3.6486544e-09    92.184185    79.833846    75.268072 2.4112476e-09 4.104157e-07 
   23000            0   -127999.04   -127999.04 2.0431062e-10 -1.9387587e-08 1.9946591e-08 5.392748e-11    92.184185    79.833846    75.268072 2.0686212e-09 3.5253474e-07 
   24000            0   -127999.04   -127999.04 -1.2234523e-09 -1.0630974e-06 1.0615598e-06 -2.1327661e-09    92.184185    79.833846    75.268072 1.8081142e-09 3.0626013e-07 
   25000            0   -127999.04   -127999.04 -1.1809241e-09 -1.3322034e-06 1.3362835e-06 -7.6228466e-09    92.184185    79.833846    75.268072 1.549163e-09 2.6448345e-07 
   26000            0   -127999.04   -127999.04 1.0401866e-09 -1.3606929e-06 1.3667959e-06 -2.9824527e-09    92.184185    79.833846    75.268072 1.3641039e-09 2.2825359e-07 
   27000            0   -127999.04   -127999.04 5.153801e-10 -9.2257554e-07 9.2556392e-07 -1.4422313e-09    92.184185    79.833846    75.268072 1.3439642e-09 1.9806697e-07 
   28000            0   -127999.04   -127999.04 2.1154479e-10 -2.8783069e-07 2.8841995e-07 4.5378001e-11    92.184185    79.833846    75.268072 1.3406152e-09 1.7457114e-07 
   29000            0   -127999.04   -127999.04 2.8783244e-10 1.9019828e-07 -1.9064416e-07 1.3093855e-09    92.184185    79.833846    75.268072 1.3326398e-09 1.5643029e-07 
   30000            0   -127999.04   -127999.04 8.4727524e-10 5.2840512e-07 -5.2749362e-07 1.6303198e-09    92.184185    79.833846    75.268072 1.3020726e-09 1.4476445e-07 
   31000            0   -127999.04   -127999.04 1.3416105e-10 6.8841453e-07 -6.8762009e-07 -3.9196071e-10    92.184185    79.833846    75.268072 1.2930644e-09 1.3864982e-07 
   32000            0   -127999.04   -127999.04 -9.4022342e-10 7.8480004e-07 -7.8899323e-07 1.3725201e-09    92.184185    79.833846    75.268072 1.2839783e-09 1.3512441e-07 
   33000            0   -127999.04   -127999.04 -4.031408e-10 6.3496582e-07 -6.3427924e-07 -1.8960113e-09    92.184185    79.833846    75.268072 1.2833644e-09 1.3379995e-07 
   34000            0   -127999.04   -127999.04 8.9659916e-11 5.9215004e-08 -5.9253147e-08 3.0712357e-10    92.184185    79.833846    75.268072 1.2785342e-09 1.3296436e-07 
   35000            0   -127999.04   -127999.04 2.659107e-10 -3.5662637e-07 3.5630807e-07 1.1160358e-09    92.184185    79.833846    75.268072 1.2723322e-09 1.3226404e-07 
   36000            0   -127999.04   -127999.04 4.9762349e-10 -6.9898958e-07 6.9949071e-07 9.9173951e-10    92.184185    79.833846    75.268072 1.2590276e-09 1.307879e-07 
   37000            0   -127999.04   -127999.04 -9.5184194e-10 -3.9177657e-07 3.9175026e-07 -2.8292197e-09    92.184185    79.833846    75.268072 1.2422614e-09 1.2862476e-07 
   38000            0   -127999.04   -127999.04 3.3956775e-10 1.0837582e-07 -1.0850472e-07 1.1476031e-09    92.184185    79.833846    75.268072 1.2374661e-09 1.2771869e-07 
   39000            0   -127999.04   -127999.04 5.5198941e-10 5.7041069e-07 -5.7028968e-07 1.5349602e-09    92.184185    79.833846    75.268072 1.2378799e-09 1.2709053e-07 
   40000            0   -127999.04   -127999.04 -4.9170462e-10 6.5446916e-07 -6.5564636e-07 -2.9791644e-10    92.184185    79.833846    75.268072 1.2388335e-09 1.2739099e-07 
   41000            0   -127999.04   -127999.04 -7.0982594e-10 7.6972665e-07 -7.6927813e-07 -2.5779966e-09    92.184185    79.833846    75.268072 1.2430268e-09 1.2774118e-07 
   42000            0   -127999.04   -127999.04 1.1063902e-09 2.8786226e-07 -2.8489756e-07 3.5447453e-10    92.184185    79.833846    75.268072 1.2530086e-09 1.2863176e-07 
   43000            0   -127999.04   -127999.04 5.4913958e-10 -1.6493391e-07 1.6692923e-07 -3.4789801e-10    92.184185    79.833846    75.268072 1.2478754e-09 1.2895721e-07 
   44000            0   -127999.04   -127999.04 -3.3123749e-10 -6.0858082e-07 6.0985272e-07 -2.2656118e-09    92.184185    79.833846    75.268072 1.2407698e-09 1.286283e-07 
   45000            0   -127999.04   -127999.04 -4.9148541e-10 -7.3683878e-07 7.3471062e-07 6.5370628e-10    92.184185    79.833846    75.268072 1.2348774e-09 1.2785653e-07 
   46000            0   -127999.04   -127999.04 5.8092611e-11 -3.5757339e-07 3.5856644e-07 -8.1877698e-10    92.184185    79.833846    75.268072 1.2317377e-09 1.2645057e-07 
   47000            0   -127999.04   -127999.04 -1.6857818e-10 1.0113639e-07 -1.011548e-07 -4.8732028e-10    92.184185    79.833846    75.268072 1.2258813e-09 1.259435e-07 
   48000            0   -127999.04   -127999.04 -3.5140549e-10 5.6684884e-07 -5.6457073e-07 -3.3323237e-09    92.184185    79.833846    75.268072 1.2296301e-09 1.2558419e-07 
   49000            0   -127999.04   -127999.04 3.3079905e-10 6.9300758e-07 -6.960091e-07 3.9939218e-09    92.184185    79.833846    75.268072 1.234658e-09 1.2624088e-07 
   50000            0   -127999.04   -127999.04 -9.4636151e-10 6.1207427e-07 -6.1475354e-07 -1.5980948e-10    92.184185    79.833846    75.268072 1.2441965e-09 1.2729121e-07 
   51000            0   -127999.04   -127999.04 1.7230487e-10 5.0754966e-08 -4.8960891e-08 -1.2771606e-09    92.184185    79.833846    75.268072 1.2432248e-09 1.2773152e-07 
   52000            0   -127999.04   -127999.04 -5.9649054e-10 -4.5789429e-07 4.5352748e-07 2.577339e-09    92.184185    79.833846    75.268072 1.2345246e-09 1.2791215e-07 
   53000            0   -127999.04   -127999.04 3.3101827e-11 -6.4097413e-07 6.4191195e-07 -8.3850655e-10    92.184185    79.833846    75.268072 1.2340596e-09 1.2724474e-07 
   54000            0   -127999.04   -127999.04 -2.0080314e-10 -7.1767216e-07 7.173657e-07 -2.9594349e-10    92.184185    79.833846    75.268072 1.2268604e-09 1.2631361e-07 
   55000            0   -127999.04   -127999.04 1.9510348e-10 -2.4322609e-07 2.415596e-07 2.2518011e-09    92.184185    79.833846    75.268072 1.2235201e-09 1.2537545e-07 
   56000            0   -127999.04   -127999.04 4.8271671e-10 2.6873773e-07 -2.6815242e-07 8.6283968e-10    92.184185    79.833846    75.268072 1.2301507e-09 1.2483407e-07 
   57000            0   -127999.04   -127999.04 -1.1311618e-10 6.2888386e-07 -6.2877469e-07 -4.485188e-10    92.184185    79.833846    75.268072 1.2331615e-09 1.2508874e-07 
   58000            0   -127999.04   -127999.04 -2.3127436e-10 7.6143497e-07 -7.5918712e-07 -2.9416783e-09    92.184185    79.833846    75.268072 1.2359948e-09 1.2579287e-07 
   59000            0   -127999.04   -127999.04 7.1508715e-10 3.6161401e-07 -3.6036315e-07 8.9440698e-10    92.184185    79.833846    75.268072 1.2405792e-09 1.2679877e-07 
   60000            0   -127999.04   -127999.04 3.805614e-10 -1.4554632e-07 1.4523328e-07 1.4547267e-09    92.184185    79.833846    75.268072 1.2469426e-09 1.2718471e-07 
   61000            0   -127999.04   -127999.04 6.0175176e-10 -5.9477538e-07 5.9650369e-07 7.6945307e-11    92.184185    79.833846    75.268072 1.2391821e-09 1.2703063e-07 
   62000            0   -127999.04   -127999.04 -5.6031967e-10 -7.0652364e-07 7.0741147e-07 -2.5687895e-09    92.184185    79.833846    75.268072 1.2345715e-09 1.2639472e-07 
   63000            0   -127999.04   -127999.04 3.5513219e-11 -5.6594391e-07 5.6441947e-07 1.6309774e-09    92.184185    79.833846    75.268072 1.2233103e-09 1.2522148e-07 
   64000            0   -127999.04   -127999.04 5.5900437e-11 -4.1574141e-08 4.273687e-08 -9.9502777e-10    92.184185    79.833846    75.268072 1.2259677e-09 1.2465462e-07 
   65000            0   -127999.04   -127999.04  1.10924e-10 5.2238629e-07 -5.173592e-07 -4.6943214e-09    92.184185    79.833846    75.268072 1.2298251e-09 1.242349e-07 
   66000            0   -127999.04   -127999.04 1.600287e-10 6.429997e-07 -6.4483981e-07 2.3201969e-09    92.184185    79.833846    75.268072 1.2399154e-09 1.2482071e-07 
   67000            0   -127999.04   -127999.04 1.7625079e-10 7.2665306e-07 -7.2740279e-07 1.2784759e-09    92.184185    79.833846    75.268072 1.2438209e-09 1.2557961e-07 
   68000            0   -127999.04   -127999.04 -7.0894907e-10 1.4514647e-07 -1.4593171e-07 -1.3416105e-09    92.184185    79.833846    75.268072 1.2427259e-09 1.2641809e-07 
   69000            0   -127999.04   -127999.04 -3.1830366e-10 -3.0461924e-07 3.0162429e-07 2.0400371e-09    92.184185    79.833846    75.268072 1.2515969e-09 1.2690239e-07 
   70000            0   -127999.04   -127999.04 -3.9744114e-10 -6.2776322e-07 6.2567451e-07 8.9637994e-10    92.184185    79.833846    75.268072 1.2421234e-09 1.2640289e-07 
   71000            0   -127999.04   -127999.04 -1.0886336e-09 -7.4940783e-07 7.4963801e-07 -3.4960791e-09    92.184185    79.833846    75.268072 1.2373649e-09 1.2582614e-07 
   72000            0   -127999.04   -127999.04 3.7508097e-10 -3.8349015e-07 3.8449372e-07 1.2166566e-10    92.184185    79.833846    75.268072 1.2290852e-09 1.2471836e-07 
   73000            0   -127999.04   -127999.04 3.5469375e-10 6.5633689e-08 -6.5308809e-08 7.3920107e-10    92.184185    79.833846    75.268072 1.2324737e-09 1.2432735e-07 
   74000            0   -127999.04   -127999.04 -9.4921133e-11 5.7114199e-07 -5.7628483e-07 4.8580768e-09    92.184185    79.833846    75.268072 1.2351185e-09 1.2418068e-07 
   75000            0   -127999.04   -127999.04 -5.3686341e-10 7.0914899e-07 -7.0706687e-07 -3.6927171e-09    92.184185    79.833846    75.268072 1.235091e-09 1.248462e-07 
   76000            0   -127999.04   -127999.04 1.5761731e-10 5.6089314e-07 -5.5815862e-07 -2.2616659e-09    92.184185    79.833846    75.268072 1.2429311e-09 1.2585834e-07 
   77000            0   -127999.04   -127999.04 -4.8732028e-10 7.2978349e-08 -7.3357156e-08 -1.0831532e-09    92.184185    79.833846    75.268072 1.2491406e-09 1.2628867e-07 
   78000            0   -127999.04   -127999.04 -2.6547227e-10 -3.3419254e-07 3.3506459e-07 -1.6684636e-09    92.184185    79.833846    75.268072 1.2489459e-09 1.2678521e-07 
   79000            0   -127999.04   -127999.04 5.7018445e-10 -6.3513418e-07 6.3034911e-07 6.4956307e-09    92.184185    79.833846    75.268072 1.2316909e-09  1.26198e-07 
   80000            0   -127999.04   -127999.04 1.3181542e-09 -7.2600067e-07 7.2823537e-07 1.7197605e-09    92.184185    79.833846    75.268072 1.2307794e-09 1.2543395e-07 
   81000            0   -127999.04   -127999.04 5.1625697e-10 -3.0071541e-07 3.043838e-07 -2.119613e-09    92.184185    79.833846    75.268072 1.2272557e-09 1.2449974e-07 
   82000            0   -127999.04   -127999.04 -1.8370418e-10 5.9893701e-08 -5.9789792e-08 -6.5502159e-10    92.184185    79.833846    75.268072 1.2261889e-09 1.242249e-07 
   83000            0   -127999.04   -127999.04 1.5564435e-11 1.5062866e-08 -1.4845841e-08 -1.7033192e-10    92.184185    79.833846    75.268072 8.5113878e-10 8.916062e-08 
   84000            0   -127999.04   -127999.04 1.3087279e-10 -4.0154139e-07 4.0122045e-07 7.1355263e-10    92.184185    79.833846    75.268072 8.4725004e-10 8.9219476e-08 
   85000            0   -127999.04   -127999.04 1.8168738e-09 -5.1567824e-07 5.1994377e-07 1.1850893e-09    92.184185    79.833846    75.268072 8.450157e-10 8.8730128e-08 
   86000            0   -127999.04   -127999.04 -2.5538827e-10 -2.5907287e-07 2.5700522e-07 1.3014937e-09    92.184185    79.833846    75.268072 8.5115793e-10 8.7785862e-08 
   87000            0   -127999.04   -127999.04 6.5984437e-11 4.6919538e-08 -4.5166237e-08 -1.5553474e-09    92.184185    79.833846    75.268072 8.612154e-10 8.7550526e-08 
   88000            0   -127999.04   -127999.04 -1.3174966e-10 3.9267623e-07 -3.8908414e-07 -3.9873453e-09    92.184185    79.833846    75.268072 8.6872971e-10 8.7386937e-08 
   89000            0   -127999.04   -127999.04 6.8834263e-10 4.8591553e-07 -4.8545912e-07 1.6086173e-09    92.184185    79.833846    75.268072 8.7408125e-10 8.7885218e-08 
   90000            0   -127999.04   -127999.04 -4.9850036e-10 4.6267673e-07 -4.6365269e-07 -5.1954523e-10    92.184185    79.833846    75.268072 8.857004e-10 8.8572224e-08 
   91000            0   -127999.04   -127999.04 7.9444385e-10 6.2960991e-08 -6.1340535e-08 7.6287655e-10    92.184185    79.833846    75.268072 8.8112451e-10 8.9119431e-08 
   92000            0   -127999.04   -127999.04 1.2451548e-10 -2.5942012e-07 2.6077356e-07 -9.7990177e-10    92.184185    79.833846    75.268072 8.9159551e-10 8.9519178e-08 
   93000            0   -127999.04   -127999.04 -8.9879133e-11 -4.4292086e-07 4.415661e-07 1.0851261e-09    92.184185    79.833846    75.268072 8.8061268e-10 8.9119124e-08 
   94000            0   -127999.04   -127999.04 -2.9791644e-10 -5.1576768e-07 5.151337e-07 -2.5977262e-10    92.184185    79.833846    75.268072 8.8244523e-10 8.8551177e-08 
   95000            0   -127999.04   -127999.04 -2.7204879e-10 -1.7846576e-07 1.7931939e-07 -1.6697789e-09    92.184185    79.833846    75.268072 8.8915009e-10 8.7862174e-08 
   96000            0   -127999.04   -127999.04 2.1658679e-10 1.4956063e-07 -1.4975135e-07 8.404795e-10    92.184185    79.833846    75.268072 8.8768695e-10 8.7500085e-08 
   97000            0   -127999.04   -127999.04 -1.060793e-09 4.3874345e-07 -4.4108075e-07 -8.4508307e-10    92.184185    79.833846    75.268072 8.9952587e-10 8.7721834e-08 
   98000            0   -127999.04   -127999.04 8.3631437e-10 5.2681624e-07 -5.2752519e-07 3.2178922e-09    92.184185    79.833846    75.268072 9.0552467e-10 8.8226439e-08 
   99000            0   -127999.04   -127999.04 1.1046365e-09 2.7848151e-07 -2.766677e-07 1.5001047e-09    92.184185    79.833846    75.268072 9.2156915e-10 8.9035946e-08 
  100000            0   -127999.04   -127999.04 -6.5480237e-10 -1.0091015e-07 9.9229194e-08 -2.834481e-10    92.184185    79.833846    75.268072 9.1969472e-10 8.9355289e-08 
Loop time of 168.856 on 144 procs for 100000 steps with 27648 atoms

99.9% CPU use with 144 MPI tasks x no OpenMP threads

Minimization stats:
  Stopping criterion = max iterations
  Energy initial, next-to-last, final = 
        -127998.990794     -127999.042911     -127999.042911
  Force two-norm initial, final = 325.246 2.38349e-07
  Force max component initial, final = 187.781 1.84495e-07
  Final line search alpha, max atom move = 1 1.84495e-07
  Iterations, force evaluations = 100000 199999

MPI task timing breakdown:
Section |  min time  |  avg time  |  max time  |%varavg| %total
---------------------------------------------------------------
Pair    | 117.25     | 118.02     | 120.54     |   5.9 | 69.89
Neigh   | 0          | 0          | 0          |   0.0 |  0.00
Comm    | 19.052     | 22.748     | 25.734     |  30.7 | 13.47
Output  | 0.62332    | 1.0548     | 2.2057     |  31.1 |  0.62
Modify  | 0          | 0          | 0          |   0.0 |  0.00
Other   |            | 27.04      |            |       | 16.01

Nlocal:    192 ave 192 max 192 min
Histogram: 144 0 0 0 0 0 0 0 0 0
Nghost:    690 ave 690 max 690 min
Histogram: 144 0 0 0 0 0 0 0 0 0
Neighs:    0 ave 0 max 0 min
Histogram: 144 0 0 0 0 0 0 0 0 0
FullNghs:  5376 ave 5376 max 5376 min
Histogram: 144 0 0 0 0 0 0 0 0 0

Total # of neighbors = 774144
Ave neighs/atom = 28
Neighbor list builds = 0
Dangerous builds = 0
min_style	sd
min_modify	dmax 0.2
write_restart	restart.min.*

# -------------- NVT Thermalization -----------------------------
thermo_style    custom step temp pe etotal press pxx pyy pzz lx ly lz
dump_modify     snapxyz every ${snapprint}
dump_modify     snapxyz every 1000
restart		500000 restart
thermo          ${thermocalc}
thermo          10000
velocity	all create 750 ${SEED} mom yes rot yes dist gaussian
velocity	all create 750 7253 mom yes rot yes dist gaussian
fix		NVT all nvt temp 750 750 0.05 tchain 10
run		${NRUNNVT}
run		100000
Per MPI rank memory allocation (min/avg/max) = 3.978 | 3.979 | 3.979 Mbytes
Step Temp PotEng TotEng Press Pxx Pyy Pzz Lx Ly Lz 
  100000          750   -127999.04    -125318.8    5168.1933    5165.8904    5154.4717    5184.2178    92.184185    79.833846    75.268072 
  110000    766.01817   -125275.98   -122538.49     13803.26    14170.943    13694.703    13544.134    92.184185    79.833846    75.268072 
  120000    741.31672   -125235.03   -122585.82    13324.334    13243.091    13448.672    13281.238    92.184185    79.833846    75.268072 
  130000    745.74978    -125248.3   -122583.25    13351.073    13432.332    13041.793    13579.094    92.184185    79.833846    75.268072 
  140000    755.30828   -125263.84   -122564.63    13614.495    13570.208    13538.515     13734.76    92.184185    79.833846    75.268072 
  150000    751.29271   -125248.21   -122563.35     13566.77    13685.676    13543.779    13470.855    92.184185    79.833846    75.268072 
  160000    750.15008   -125247.22   -122566.44    13508.689    13532.193    13404.761    13589.112    92.184185    79.833846    75.268072 
  170000    750.09696   -125248.48    -122567.9    13534.114    13364.272    13570.422    13667.647    92.184185    79.833846    75.268072 
  180000    753.95705   -125267.52   -122573.13     13561.79    13829.608     13386.37    13469.392    92.184185    79.833846    75.268072 
  190000      746.609   -125243.84   -122575.72    13576.904    13487.992    13589.797    13652.922    92.184185    79.833846    75.268072 
  200000    751.68669   -125268.46   -122582.19    13530.505    13472.464    13316.011    13803.039    92.184185    79.833846    75.268072 
Loop time of 75.8951 on 144 procs for 100000 steps with 27648 atoms

Performance: 56.921 ns/day, 0.422 hours/ns, 1317.609 timesteps/s
99.9% CPU use with 144 MPI tasks x no OpenMP threads

MPI task timing breakdown:
Section |  min time  |  avg time  |  max time  |%varavg| %total
---------------------------------------------------------------
Pair    | 59.129     | 59.418     | 60.129     |   2.3 | 78.29
Neigh   | 0          | 0          | 0          |   0.0 |  0.00
Comm    | 8.4958     | 10.716     | 12.387     |  26.1 | 14.12
Output  | 0.062734   | 0.10663    | 0.22671    |  10.0 |  0.14
Modify  | 2.8728     | 4.3409     | 6.514      |  41.4 |  5.72
Other   |            | 1.314      |            |       |  1.73

Nlocal:    192 ave 192 max 192 min
Histogram: 144 0 0 0 0 0 0 0 0 0
Nghost:    690 ave 690 max 690 min
Histogram: 144 0 0 0 0 0 0 0 0 0
Neighs:    0 ave 0 max 0 min
Histogram: 144 0 0 0 0 0 0 0 0 0
FullNghs:  5376 ave 5376 max 5376 min
Histogram: 144 0 0 0 0 0 0 0 0 0

Total # of neighbors = 774144
Ave neighs/atom = 28
Neighbor list builds = 0
Dangerous builds = 0
unfix		NVT
write_restart	restart.NVT.*

# ------------ Annealing -----------------------------------------
fix             equil all langevin ${Thi} $T 0.05 ${langSEED} tally yes zero yes
fix             equil all langevin 750 $T 0.05 ${langSEED} tally yes zero yes
fix             equil all langevin 750 300 0.05 ${langSEED} tally yes zero yes
fix             equil all langevin 750 300 0.05 9934 tally yes zero yes
WARNING: Energy tally does not account for 'zero yes' (../fix_langevin.cpp:181)
fix             NVE all nve
run             ${NRUNanneal}
run             100000
Per MPI rank memory allocation (min/avg/max) = 4.353 | 4.354 | 4.355 Mbytes
Step Temp PotEng TotEng Press Pxx Pyy Pzz Lx Ly Lz 
  200000    751.68669   -125268.46   -122582.19    13530.505    13472.464    13316.011    13803.039    92.184185    79.833846    75.268072 
  210000     705.6059   -125405.51   -122883.92    12855.254    12890.481    13196.698    12478.583    92.184185    79.833846    75.268072 
  220000    660.78413   -125593.17   -123231.75    11869.238     12063.54     11769.31    11774.863    92.184185    79.833846    75.268072 
  230000    614.26703   -125765.97   -123570.79    11162.841    11180.869    11519.442    10788.212    92.184185    79.833846    75.268072 
  240000    572.45531    -125938.5   -123892.74    10336.077    10041.364    10430.267      10536.6    92.184185    79.833846    75.268072 
  250000     523.4575   -126097.02   -124226.36     9501.819    9918.5436    9202.3526    9384.5609    92.184185    79.833846    75.268072 
  260000    486.19648   -126249.48   -124511.98    8852.6083    9066.2668    8665.1045    8826.4535    92.184185    79.833846    75.268072 
  270000    433.81068    -126413.5   -124863.21    7944.7551    7758.7097    7839.4293    8236.1264    92.184185    79.833846    75.268072 
  280000    390.83293   -126582.95   -125186.25      7125.84    6702.3773    7301.9945    7373.1483    92.184185    79.833846    75.268072 
  290000    347.42021   -126758.21   -125516.65    6327.7229    6421.9682    6408.6473    6152.5531    92.184185    79.833846    75.268072 
  300000    301.63694    -126915.6   -125837.66     5488.796    5615.8611    5154.1133    5696.4136    92.184185    79.833846    75.268072 
Loop time of 79.2994 on 144 procs for 100000 steps with 27648 atoms

Performance: 54.477 ns/day, 0.441 hours/ns, 1261.044 timesteps/s
100.0% CPU use with 144 MPI tasks x no OpenMP threads

MPI task timing breakdown:
Section |  min time  |  avg time  |  max time  |%varavg| %total
---------------------------------------------------------------
Pair    | 60.569     | 61.198     | 62.162     |   4.0 | 77.17
Neigh   | 0          | 0          | 0          |   0.0 |  0.00
Comm    | 8.3583     | 10.435     | 12.269     |  24.7 | 13.16
Output  | 0.063519   | 0.10785    | 0.22679    |  10.1 |  0.14
Modify  | 4.615      | 6.2348     | 8.446      |  33.6 |  7.86
Other   |            | 1.324      |            |       |  1.67

Nlocal:    192 ave 192 max 192 min
Histogram: 144 0 0 0 0 0 0 0 0 0
Nghost:    747.715 ave 770 max 725 min
Histogram: 2 5 16 20 33 22 19 13 10 4
Neighs:    0 ave 0 max 0 min
Histogram: 144 0 0 0 0 0 0 0 0 0
FullNghs:  5377.38 ave 5384 max 5372 min
Histogram: 1 4 8 45 27 39 10 5 1 4

Total # of neighbors = 774342
Ave neighs/atom = 28.0072
Neighbor list builds = 0
Dangerous builds = 0
unfix           equil
unfix           NVE
write_restart	restart.anneal.300.*

# -------------- NVE Equilibration ----------------------------------
fix             NVE all nve
dump            snapNVExyz all custom ${snapprint} snap.NVE.lammpstrj id type x y z
dump            snapNVExyz all custom 1000 snap.NVE.lammpstrj id type x y z
run             ${NRUNNVE}
run             100000
Per MPI rank memory allocation (min/avg/max) = 5.236 | 5.236 | 5.237 Mbytes
Step Temp PotEng TotEng Press Pxx Pyy Pzz Lx Ly Lz 
  300000    301.63694    -126915.6   -125837.66     5488.796    5615.8611    5154.1133    5696.4136    92.184185    79.833846    75.268072 
  310000    301.35378   -126914.59   -125837.66      5471.92    5766.2232    5303.4067    5346.1302    92.184185    79.833846    75.268072 
  320000    303.43096   -126922.02   -125837.66    5477.7979    5838.2936    5232.5144    5362.5855    92.184185    79.833846    75.268072 
  330000    300.47654   -126911.46   -125837.66    5493.2231    5736.8259    5410.9197    5331.9237    92.184185    79.833846    75.268072 
  340000    301.47325   -126915.02   -125837.66    5484.5486    5733.6417    5463.4654    5256.5386    92.184185    79.833846    75.268072 
  350000    302.27424   -126917.88   -125837.66    5453.1284    5357.9495    5541.8585    5459.5773    92.184185    79.833846    75.268072 
  360000    301.69227    -126915.8   -125837.66     5461.779    5212.7133    5449.1758    5723.4479    92.184185    79.833846    75.268072 
  370000    300.88563   -126912.92   -125837.65    5517.0651    5445.4704    5288.5962    5817.1288    92.184185    79.833846    75.268072 
  380000     301.7182   -126915.89   -125837.66    5490.9207    5179.1988    5562.0657    5731.4977    92.184185    79.833846    75.268072 
  390000    300.37957   -126911.11   -125837.65    5553.0778    5146.4333    5925.2713    5587.5289    92.184185    79.833846    75.268072 
  400000    300.45868   -126911.39   -125837.66    5500.2132    5399.0479      5660.98    5440.6117    92.184185    79.833846    75.268072 
Loop time of 76.2454 on 144 procs for 100000 steps with 27648 atoms

Performance: 56.659 ns/day, 0.424 hours/ns, 1311.555 timesteps/s
100.0% CPU use with 144 MPI tasks x no OpenMP threads

MPI task timing breakdown:
Section |  min time  |  avg time  |  max time  |%varavg| %total
---------------------------------------------------------------
Pair    | 59.598     | 60.378     | 62.007     |   4.6 | 79.19
Neigh   | 0          | 0          | 0          |   0.0 |  0.00
Comm    | 8.5084     | 10.486     | 13.185     |  27.6 | 13.75
Output  | 0.29424    | 0.33792    | 0.45298    |   5.5 |  0.44
Modify  | 0.254      | 0.26311    | 0.27233    |   0.8 |  0.35
Other   |            | 4.78       |            |       |  6.27

Nlocal:    192 ave 192 max 192 min
Histogram: 144 0 0 0 0 0 0 0 0 0
Nghost:    715.229 ave 730 max 697 min
Histogram: 1 2 13 22 23 20 30 20 6 7
Neighs:    0 ave 0 max 0 min
Histogram: 144 0 0 0 0 0 0 0 0 0
FullNghs:  5376 ave 5376 max 5376 min
Histogram: 144 0 0 0 0 0 0 0 0 0

Total # of neighbors = 774144
Ave neighs/atom = 28
Neighbor list builds = 0
Dangerous builds = 0
unfix           NVE
write_restart   restart.anneal.NVE.*

# ------------ Pressure Relaxation -----------------------------------------
#fix             NPT all npt temp $T $T 0.05 x 0 0 0.5 y 0 0 0.5 z 0 0 0.5 couple none tchain 10
fix             NPT all npt temp $T $T 0.05 x 0 0 0.5 y 0 0 0.5 z 0 0 0.5 xy 0 0 0.5 xz 0 0 0.5 yz 0 0 0.5 couple none tchain 10
fix             NPT all npt temp 300 $T 0.05 x 0 0 0.5 y 0 0 0.5 z 0 0 0.5 xy 0 0 0.5 xz 0 0 0.5 yz 0 0 0.5 couple none tchain 10
fix             NPT all npt temp 300 300 0.05 x 0 0 0.5 y 0 0 0.5 z 0 0 0.5 xy 0 0 0.5 xz 0 0 0.5 yz 0 0 0.5 couple none tchain 10

run             ${NRUNNPT}
run             100000
Per MPI rank memory allocation (min/avg/max) = 5.252 | 5.253 | 5.253 Mbytes
Step Temp PotEng TotEng Press Pxx Pyy Pzz Lx Ly Lz 
  400000    300.45868   -126911.39   -125837.66    5500.2132    5399.0479      5660.98    5440.6117    92.184185    79.833846    75.268072 
  410000    299.57815   -126916.12   -125845.54    252.52393    409.64676    639.23388   -291.30885     92.34051    79.973991    75.418788 
  420000    297.26346   -126917.36   -125855.04    48.939943    103.96346    46.064628   -3.2082608    92.362451    79.979468     75.40773 
  430000    298.52187   -126910.99   -125844.18   -237.35135   -281.50327   -354.34127   -76.209491    92.363777    79.999078    75.411426 
  440000    299.43274   -126898.96   -125828.89   -24.970331   -56.287523   -54.295341    35.671871    92.364313     79.98526    75.412257 
  450000     301.7025   -126914.07   -125835.89    128.36759    241.55811    179.36196   -35.817299    92.347758    79.988734    75.412721 
  460000    299.19136   -126914.14   -125844.93    160.38047    338.68091    195.22532   -52.764806    92.353653    79.981182    75.407307 
  470000     300.1846   -126905.79   -125833.04    56.645758    29.126888    38.038926    102.77146    92.358572     79.98378    75.413347 
  480000    300.30335    -126904.4   -125831.22    -89.50491    176.72196   -116.02041   -329.21628    92.359568    79.985717    75.420687 
  490000    298.80397   -126909.01   -125841.19    50.642066    56.651267    144.74318    -49.46825    92.360952    79.985281    75.407221 
  500000     302.3727   -126916.36   -125835.79     238.8852    151.22755    44.629436     520.7986    92.358443    79.979638    75.403071 
Loop time of 84.9567 on 144 procs for 100000 steps with 27648 atoms

Performance: 50.849 ns/day, 0.472 hours/ns, 1177.070 timesteps/s
100.0% CPU use with 144 MPI tasks x no OpenMP threads

MPI task timing breakdown:
Section |  min time  |  avg time  |  max time  |%varavg| %total
---------------------------------------------------------------
Pair    | 59.87      | 60.792     | 61.806     |   5.0 | 71.56
Neigh   | 0.00065005 | 0.00069644 | 0.00074537 |   0.0 |  0.00
Comm    | 8.6266     | 10.636     | 12.428     |  24.7 | 12.52
Output  | 0.30833    | 0.35358    | 0.47152    |   5.6 |  0.42
Modify  | 10.013     | 11.955     | 13.717     |  23.8 | 14.07
Other   |            | 1.219      |            |       |  1.43

Nlocal:    192 ave 192 max 192 min
Histogram: 144 0 0 0 0 0 0 0 0 0
Nghost:    708.986 ave 725 max 699 min
Histogram: 4 19 20 41 21 22 10 5 1 1
Neighs:    0 ave 0 max 0 min
Histogram: 144 0 0 0 0 0 0 0 0 0
FullNghs:  5376 ave 5376 max 5376 min
Histogram: 144 0 0 0 0 0 0 0 0 0

Total # of neighbors = 774144
Ave neighs/atom = 28
Neighbor list builds = 2
Dangerous builds = 0
unfix           NPT
write_restart   restart.NPT.300.*

# -------------- NVE Equilibration ----------------------------------
fix             NVE all nve
dump            snapNVEPxyz all custom ${snapprint} snap.NVE.pressure.lammpstrj id type x y z
dump            snapNVEPxyz all custom 1000 snap.NVE.pressure.lammpstrj id type x y z
run             ${NRUNNVE}
run             100000
Per MPI rank memory allocation (min/avg/max) = 6.493 | 6.494 | 6.494 Mbytes
Step Temp PotEng TotEng Press Pxx Pyy Pzz Lx Ly Lz 
  500000     302.3727   -126916.36   -125835.79     238.8852    151.22755    44.629436     520.7986    92.358443    79.979638    75.403071 
  510000    301.36424   -126912.76   -125835.78      221.139   -52.747815    319.38201    396.78282    92.358443    79.979638    75.403071 
  520000    300.83089   -126910.85   -125835.78    223.17343    188.26156    72.951971    408.30675    92.358443    79.979638    75.403071 
  530000    298.81366   -126903.64   -125835.78    168.47363    77.186031    246.26402    181.97085    92.358443    79.979638    75.403071 
  540000     300.1277   -126908.34   -125835.78    186.71378    150.14201   -33.335578    443.33492    92.358443    79.979638    75.403071 
  550000    302.24088   -126915.89   -125835.79    178.87572    353.95947    67.560225    115.10747    92.358443    79.979638    75.403071 
  560000    299.66561   -126906.68   -125835.78    199.38145    162.69344    317.42846    118.02244    92.358443    79.979638    75.403071 
  570000    300.54146   -126909.81   -125835.78    213.47652   -235.18939    266.37297    609.24597    92.358443    79.979638    75.403071 
  580000    300.47463   -126909.58   -125835.78     174.7895    213.72729    23.619891    287.02133    92.358443    79.979638    75.403071 
  590000    300.38001   -126909.24   -125835.78    218.01692     307.7054    416.02454   -69.679162    92.358443    79.979638    75.403071 
  600000    300.52268   -126909.75   -125835.78     204.0351    75.398765    283.70263    253.00392    92.358443    79.979638    75.403071 
Loop time of 75.8638 on 144 procs for 100000 steps with 27648 atoms

Performance: 56.944 ns/day, 0.421 hours/ns, 1318.152 timesteps/s
100.0% CPU use with 144 MPI tasks x no OpenMP threads

MPI task timing breakdown:
Section |  min time  |  avg time  |  max time  |%varavg| %total
---------------------------------------------------------------
Pair    | 59.512     | 60.345     | 61.357     |   4.5 | 79.54
Neigh   | 0          | 0          | 0          |   0.0 |  0.00
Comm    | 8.4979     | 10.154     | 12.009     |  23.4 | 13.38
Output  | 0.5112     | 0.55632    | 0.6708     |   4.3 |  0.73
Modify  | 0.25436    | 0.26317    | 0.2726     |   0.8 |  0.35
Other   |            | 4.545      |            |       |  5.99

Nlocal:    192 ave 192 max 192 min
Histogram: 144 0 0 0 0 0 0 0 0 0
Nghost:    708.986 ave 725 max 699 min
Histogram: 4 19 20 41 21 22 10 5 1 1
Neighs:    0 ave 0 max 0 min
Histogram: 144 0 0 0 0 0 0 0 0 0
FullNghs:  5376 ave 5376 max 5376 min
Histogram: 144 0 0 0 0 0 0 0 0 0

Total # of neighbors = 774144
Ave neighs/atom = 28
Neighbor list builds = 0
Dangerous builds = 0
unfix           NVE
write_restart   restart.NVE.pressure.*

write_restart   restart.final.*
write_data	data.vels nocoeff
Total wall time: 0:09:21
