LAMMPS data file via write_data, version 16 Mar 2018, timestep = 400000

16000 atoms
2 atom types

-5.6656501576140528e-01 1.1007044001576483e+02 xlo xhi
-7.9647128275281887e-01 5.4855346282753843e+01 ylo yhi
-8.0065435910867677e-01 5.4859529359109303e+01 zlo zhi

Masses

1 28.0855
2 72.64

Atoms # atomic

1 1 2.1547916614808568e-01 -1.1342639861286469e-01 -1.8089002752348946e-01 0 0 0
5 1 1.4506154598934016e+00 1.2659212117229885e+00 1.3345797302234157e+00 0 0 0
9 2 5.6677762778986054e+00 -1.0049240913588336e-01 -2.8639017915472780e-02 0 0 0
13 2 7.0386470223673188e+00 1.3917227510359307e+00 1.3834082230153575e+00 0 0 0
17 1 1.1261380936902745e+01 -1.6358646520595346e-01 -4.8224977605475498e-02 0 0 0
21 1 1.2569920495310978e+01 1.3136114799972467e+00 1.2233701049651913e+00 0 0 0
25 2 1.6606829627867224e+01 -6.1254907899364087e-02 -2.0438447947149768e-01 0 0 0
29 2 1.8017996645034014e+01 1.3043020182941190e+00 1.2764054657273898e+00 0 0 0
33 1 2.2327187103799233e+01 -1.0483055256515995e-01 -1.0107730884462560e-01 0 0 0
37 1 2.3763006130528169e+01 1.1688648418533074e+00 1.1886953487310781e+00 0 0 0
4 1 2.8347769022071216e+00 2.5781502855593552e+00 -1.1903487351505289e-01 0 0 0
6 1 4.1740372885875345e+00 4.0908767489160329e+00 1.2801813415649195e+00 0 0 0
12 2 8.3508774949577411e+00 2.7485449730333444e+00 -8.7676247069092300e-02 0 0 0
14 2 9.8489271239732545e+00 4.0068869083746144e+00 1.3710674238110561e+00 0 0 0
20 1 1.3927114628127491e+01 2.7251695837741123e+00 -2.1225257107119988e-01 0 0 0
22 1 1.5185951746447019e+01 4.0971251802541770e+00 1.1878964820945628e+00 0 0 0
28 2 1.9510544019660639e+01 2.7205175997952389e+00 -5.2267636968938581e-02 0 0 0
30 2 2.1037785660411750e+01 4.0796061039336804e+00 1.2921486168856389e+00 0 0 0
36 1 2.4990006733869823e+01 2.6186436977287642e+00 -8.2680457328983437e-02 0 0 0
38 1 2.6471737270436439e+01 4.1311547125295851e+00 1.2370000273125292e+00 0 0 0
161 1 1.3810475033035627e-01 5.4622462364322146e+00 -1.5122660334424484e-01 0 0 0
165 1 1.5117031830352303e+00 6.8283804359629530e+00 1.2756653497110713e+00 0 0 0
169 2 5.4844191231872799e+00 5.4283194325838418e+00 -1.5936391009231965e-01 0 0 0
173 2 6.9943694604400788e+00 6.8096370911549329e+00 1.2484095400924753e+00 0 0 0
177 1 1.1200818672172531e+01 5.3756480591979114e+00 -1.6957122360136548e-01 0 0 0
181 1 1.2566494167597792e+01 6.8259391446560089e+00 1.2896444828946887e+00 0 0 0
185 2 1.6661329320150557e+01 5.4609348945189407e+00 -1.3706608130575676e-01 0 0 0
189 2 1.8094305301627067e+01 6.9564817125344129e+00 1.2751492449741186e+00 0 0 0
193 1 2.2381009029912057e+01 5.4317465281578903e+00 -1.5401982641196699e-01 0 0 0
197 1 2.3691340027710741e+01 6.7556243960305054e+00 1.2464126954176031e+00 0 0 0
164 1 2.8354801679990191e+00 8.2761585665363864e+00 -7.3343911786044158e-02 0 0 0
166 1 4.1906941553959829e+00 9.5966416457565895e+00 1.1988720926606140e+00 0 0 0
172 2 8.3804965804897176e+00 8.1616724116760704e+00 -8.5046983072899027e-02 0 0 0
174 2 9.9417423170211610e+00 9.6327491928156057e+00 1.3212403542068443e+00 0 0 0
180 1 1.3919533639300889e+01 8.1784018080206433e+00 -2.4116880776605995e-01 0 0 0
182 1 1.5165039020209083e+01 9.5681627722591038e+00 1.3745065168422792e+00 0 0 0
188 2 1.9510007935622543e+01 8.4433885171638430e+00 -1.3892917887711062e-01 0 0 0
190 2 2.0947833747536706e+01 9.7116612026983447e+00 1.2735056513685408e+00 0 0 0
196 1 2.4998551908582755e+01 8.2667120080639016e+00 -1.0962305344522781e-01 0 0 0
198 1 2.6288242556302084e+01 9.6610805832384035e+00 1.2948168745187800e+00 0 0 0
321 1 1.9564811225713921e-01 1.0990724203882314e+01 2.8567227161531126e-02 0 0 0
325 1 1.5593933961920610e+00 1.2481902380124245e+01 1.2975245412521617e+00 0 0 0
329 2 5.5250057972367719e+00 1.0957937677329786e+01 -1.8302230330406277e-01 0 0 0
333 2 7.0109405367217121e+00 1.2320601829662907e+01 1.1543079951428237e+00 0 0 0
337 1 1.1387242070170725e+01 1.1004680040095293e+01 -5.6600677832808192e-02 0 0 0
341 1 1.2628431655189027e+01 1.2464452043301488e+01 1.3277591974055667e+00 0 0 0
345 2 1.6582004686704796e+01 1.1032696055744175e+01 2.9372188457541200e-02 0 0 0
349 2 1.8109986135505338e+01 1.2403542504092346e+01 1.4205970647794246e+00 0 0 0
353 1 2.2326100410057087e+01 1.0990568172829139e+01 -1.3338625366312565e-01 0 0 0
357 1 2.3686091786105219e+01 1.2399451461412914e+01 1.2206564737165733e+00 0 0 0
324 1 2.8249787619329023e+00 1.3808047935082326e+01 -2.0781859152963483e-01 0 0 0
326 1 4.2754568405966760e+00 1.5167211830231597e+01 1.1789215874243686e+00 0 0 0
332 2 8.4710533511659012e+00 1.3826709802151258e+01 -1.5037973514819764e-01 0 0 0
334 2 9.8418227077648428e+00 1.5174734400973959e+01 1.2489029903662916e+00 0 0 0
340 1 1.3921406333097478e+01 1.3822462608388053e+01 -7.3670937896814517e-02 0 0 0
342 1 1.5142935078193187e+01 1.5243338320643375e+01 1.3161803878592171e+00 0 0 0
348 2 1.9522328626444267e+01 1.3767850241558360e+01 -5.9943611721772032e-02 0 0 0
350 2 2.1018561515452962e+01 1.5156378484648398e+01 1.2118866060039295e+00 0 0 0
356 1 2.5057825936426898e+01 1.3758988482341016e+01 -1.9472796328063113e-01 0 0 0
358 1 2.6366963512745887e+01 1.5176251209623272e+01 1.2684212689019221e+00 0 0 0
481 1 3.6373898611953703e-01 1.6649663709819333e+01 -3.7146641487511546e-02 0 0 0
485 1 1.6596248345572002e+00 1.8079413474754986e+01 1.2765493694649395e+00 0 0 0
489 2 5.6346081625867024e+00 1.6664332697162816e+01 -7.5605129760897172e-02 0 0 0
493 2 7.0083252183003113e+00 1.8074907390532896e+01 1.2175899617187111e+00 0 0 0
497 1 1.1282909628165527e+01 1.6581327929524296e+01 -6.0273111768645159e-02 0 0 0
501 1 1.2572054717510115e+01 1.8071965534793733e+01 1.3088878368889401e+00 0 0 0
505 2 1.6625950242237145e+01 1.6563138317079133e+01 -5.9779607370302877e-02 0 0 0
509 2 1.8111958335443443e+01 1.8068564394488060e+01 1.2801004855940019e+00 0 0 0
513 1 2.2318272944150849e+01 1.6522200979939527e+01 -1.1431464689354671e-01 0 0 0
517 1 2.3593640634273918e+01 1.7924208956788053e+01 1.2818248664271847e+00 0 0 0
484 1 2.8655538822796887e+00 1.9549115344738119e+01 -1.8673115417280622e-01 0 0 0
486 1 4.1880650086739353e+00 2.0827149833596678e+01 1.3022281370234539e+00 0 0 0
492 2 8.5154320008940125e+00 1.9417970124749370e+01 -1.0648462364893331e-01 0 0 0
494 2 9.8954095132111028e+00 2.0745129509711671e+01 1.2936496557634551e+00 0 0 0
500 1 1.3941451705231303e+01 1.9314576058220311e+01 -1.6175974634833706e-01 0 0 0
502 1 1.5276478692616374e+01 2.0796321019807369e+01 1.1667257373762774e+00 0 0 0
508 2 1.9578582545020794e+01 1.9497933951454321e+01 -1.6125621125735259e-01 0 0 0
510 2 2.0960162000659498e+01 2.0762721270887070e+01 1.2532063396279705e+00 0 0 0
516 1 2.4976252231371021e+01 1.9329187046942245e+01 -1.0574379692928426e-01 0 0 0
518 1 2.6235164245199492e+01 2.0780126494696560e+01 1.3198939957512179e+00 0 0 0
641 1 2.0872491714275848e-01 2.2241870406295668e+01 -1.4543907489539940e-01 0 0 0
645 1 1.5493401318325823e+00 2.3547061352845724e+01 1.3369806653471727e+00 0 0 0
649 2 5.6075715313927432e+00 2.2188281045581085e+01 -8.2577946175568476e-02 0 0 0
653 2 7.0893860678662177e+00 2.3507262245473996e+01 1.3316134066374128e+00 0 0 0
657 1 1.1296036093345174e+01 2.2134538742437922e+01 -4.2374893810502204e-02 0 0 0
661 1 1.2664061387574167e+01 2.3505447731094694e+01 1.2322684654984555e+00 0 0 0
665 2 1.6600064744706561e+01 2.2280898527329473e+01 -1.8783588828201023e-01 0 0 0
669 2 1.8096398099399167e+01 2.3617822276829337e+01 1.1603296298528680e+00 0 0 0
673 1 2.2308502470968858e+01 2.2222637363274838e+01 -6.8458368472877368e-02 0 0 0
677 1 2.3652356701020882e+01 2.3583579963484429e+01 1.3604434679251203e+00 0 0 0
644 1 2.8859673798660381e+00 2.4869633215124495e+01 -1.8449183416438830e-01 0 0 0
646 1 4.1467613010353146e+00 2.6261864409660010e+01 1.3384460042252166e+00 0 0 0
652 2 8.5545379701014070e+00 2.4904560454650120e+01 -1.0028554633819255e-01 0 0 0
654 2 9.9861444614813824e+00 2.6239059209931884e+01 1.3251377117984349e+00 0 0 0
660 1 1.3865361382961849e+01 2.4983946528241106e+01 -2.2270197047070220e-01 0 0 0
662 1 1.5158322310006112e+01 2.6275000664581864e+01 1.2078456522914125e+00 0 0 0
668 2 1.9463630195140070e+01 2.4893887220034355e+01 -1.0928777807635311e-01 0 0 0
670 2 2.0808416052235160e+01 2.6351991092947120e+01 1.3764245429406807e+00 0 0 0
676 1 2.4957547347737673e+01 2.5014765822519472e+01 2.6851619036919818e-02 0 0 0
678 1 2.6358116817368010e+01 2.6428893601477814e+01 1.4067177698284814e+00 0 0 0
3 1 2.9501175501356509e+00 -1.0765187537203748e-01 2.7420142568682269e+00 0 0 0
8 1 4.2297348900989844e+00 1.2473375682020711e+00 4.1405219715807986e+00 0 0 0
11 2 8.4221469813929435e+00 -5.1747530818927426e-02 2.7846940966866307e+00 0 0 0
16 2 9.9256927204713747e+00 1.3124077379077079e+00 4.0945792659527411e+00 0 0 0
19 1 1.3942059922273419e+01 -7.0334739236706120e-02 2.6580532186450769e+00 0 0 0
24 1 1.5204003616339616e+01 1.3063753060689367e+00 4.0789305787440187e+00 0 0 0
27 2 1.9373016446410659e+01 -1.1977653509194777e-01 2.7833801920005867e+00 0 0 0
32 2 2.0904981305599449e+01 1.2327816250006207e+00 4.0150714700077472e+00 0 0 0
35 1 2.4952600461274617e+01 -9.1081222244815296e-02 2.6964431369186883e+00 0 0 0
40 1 2.6316643344739823e+01 1.3072363099097877e+00 4.1035652604451149e+00 0 0 0
2 1 1.5490756291569679e-01 2.6347119225962423e+00 2.6713685345523319e+00 0 0 0
7 1 1.5091773635425392e+00 4.0270369513924900e+00 4.0897485880034044e+00 0 0 0
10 2 5.5118669693297440e+00 2.7272649598382781e+00 2.7558518974520254e+00 0 0 0
15 2 7.1321500887721081e+00 4.0846196990019115e+00 4.0696051267306510e+00 0 0 0
18 1 1.1290715848068704e+01 2.5594319061615463e+00 2.6761296258728766e+00 0 0 0
23 1 1.2659334188912633e+01 4.2129212805819076e+00 4.0615709159333937e+00 0 0 0
26 2 1.6553807258540438e+01 2.7626248153534134e+00 2.6622083674934491e+00 0 0 0
31 2 1.8056455475503810e+01 4.1661381762980243e+00 4.0208607722259888e+00 0 0 0
34 1 2.2382136246897012e+01 2.6008325609354914e+00 2.6521203067004753e+00 0 0 0
39 1 2.3760856365198805e+01 4.0302419403905487e+00 3.9260517592219006e+00 0 0 0
163 1 2.7764967497674649e+00 5.3821656279866499e+00 2.6013041167883730e+00 0 0 0
168 1 4.1880656219743786e+00 6.8159732979279744e+00 4.0045545570355783e+00 0 0 0
171 2 8.4580262112088000e+00 5.4992572917161171e+00 2.7732935609330065e+00 0 0 0
176 2 9.8198660402720801e+00 6.8849328898995221e+00 4.1484229596776903e+00 0 0 0
179 1 1.3991180051956086e+01 5.5111965446685973e+00 2.6112234736288755e+00 0 0 0
184 1 1.5186911992355935e+01 6.8715854487103671e+00 4.1338162602841173e+00 0 0 0
187 2 1.9496046458362621e+01 5.4910127852115949e+00 2.7065297429464819e+00 0 0 0
192 2 2.1036211267883420e+01 6.8192169753361602e+00 4.0456616596141499e+00 0 0 0
195 1 2.5069275856813970e+01 5.4732578499471440e+00 2.5813133459667923e+00 0 0 0
200 1 2.6348339944805030e+01 6.9048293601390185e+00 4.0186920559906119e+00 0 0 0
162 1 2.4767201655882318e-01 8.2221025994663144e+00 2.6628257928538583e+00 0 0 0
167 1 1.5771009524186879e+00 9.5774397889292189e+00 3.9817820638714969e+00 0 0 0
170 2 5.5559373129829739e+00 8.2207014911677589e+00 2.6883525434826017e+00 0 0 0
175 2 6.9361971492258823e+00 9.6632214158082022e+00 4.0726131601275544e+00 0 0 0
178 1 1.1251993943670591e+01 8.1960173356588157e+00 2.7020320640681565e+00 0 0 0
183 1 1.2624001860710493e+01 9.6430559853821514e+00 3.9985920529159875e+00 0 0 0
186 2 1.6548865532246325e+01 8.2172605509057188e+00 2.6272215765674773e+00 0 0 0
191 2 1.7998689482258367e+01 9.5666759839194171e+00 4.0626315888689550e+00 0 0 0
194 1 2.2404797880169692e+01 8.2145376769325811e+00 2.5707063323810133e+00 0 0 0
199 1 2.3637918585948093e+01 9.6563213830575751e+00 4.0643424880323940e+00 0 0 0
323 1 2.8793066858875043e+00 1.1067909102818060e+01 2.6050367047951002e+00 0 0 0
328 1 4.2611590806675839e+00 1.2463137190925753e+01 4.0057729761257681e+00 0 0 0
331 2 8.3990404036715134e+00 1.1014535933805002e+01 2.7134055794712419e+00 0 0 0
336 2 9.8531183251771175e+00 1.2474837549407125e+01 3.9821317341469253e+00 0 0 0
339 1 1.3970395187839884e+01 1.1044461012551990e+01 2.6429925931072336e+00 0 0 0
344 1 1.5317432689006676e+01 1.2334405742855864e+01 4.1134171860262922e+00 0 0 0
347 2 1.9573784108382476e+01 1.1010039122844177e+01 2.7138753156683886e+00 0 0 0
352 2 2.0964080058159841e+01 1.2361044903883508e+01 4.1442398828434959e+00 0 0 0
355 1 2.4973267338626517e+01 1.1081472430068411e+01 2.6482905885725017e+00 0 0 0
360 1 2.6353568901285971e+01 1.2388260534207744e+01 4.0518663811680069e+00 0 0 0
322 1 2.2405035638592669e-01 1.3840405779876713e+01 2.6477640651063052e+00 0 0 0
327 1 1.5743383131775464e+00 1.5229274616822293e+01 3.9510996634143449e+00 0 0 0
330 2 5.6110826971212449e+00 1.3780196279899366e+01 2.5556404929037804e+00 0 0 0
335 2 7.0103635777838811e+00 1.5112151677257669e+01 3.9996687840468264e+00 0 0 0
338 1 1.1255714581438195e+01 1.3854448171577223e+01 2.6409201393754951e+00 0 0 0
343 1 1.2506874733296277e+01 1.5192955381253755e+01 4.1238663063372298e+00 0 0 0
346 2 1.6521744913401623e+01 1.3872999419776203e+01 2.7438508773826555e+00 0 0 0
351 2 1.8125357591007973e+01 1.5196744730170172e+01 4.0475580942433949e+00 0 0 0
354 1 2.2350004334751173e+01 1.3777559841129296e+01 2.7386105370789418e+00 0 0 0
359 1 2.3704883577461228e+01 1.5160971876228174e+01 4.1265967359074995e+00 0 0 0
483 1 2.8979859180636693e+00 1.6617682213379126e+01 2.5580286757152528e+00 0 0 0
488 1 4.3239657749455702e+00 1.7934882603321988e+01 4.0205151131953505e+00 0 0 0
491 2 8.4296194237730635e+00 1.6589223679655152e+01 2.6471229603275241e+00 0 0 0
496 2 9.8807745690884161e+00 1.8001286030120763e+01 4.0355928089510256e+00 0 0 0
499 1 1.3806864267731488e+01 1.6630093941696472e+01 2.7192059453804687e+00 0 0 0
504 1 1.5064040064485649e+01 1.8058309035532325e+01 4.0642912935933442e+00 0 0 0
507 2 1.9633673576646590e+01 1.6584267545297472e+01 2.6709538130411588e+00 0 0 0
512 2 2.0979261060113792e+01 1.7996664102495210e+01 4.0660866563950879e+00 0 0 0
515 1 2.4964656371321094e+01 1.6597485396934754e+01 2.6407913860435475e+00 0 0 0
520 1 2.6319576563021212e+01 1.7946287436418604e+01 3.9684346058247648e+00 0 0 0
482 1 2.7087344066535418e-01 1.9379888485889641e+01 2.7272990059043916e+00 0 0 0
487 1 1.6078194509016583e+00 2.0751954984332507e+01 4.0295210698163846e+00 0 0 0
490 2 5.6013973236224537e+00 1.9479349822158991e+01 2.6487552684370153e+00 0 0 0
495 2 7.0387407100310764e+00 2.0702583162035513e+01 4.0767801789012053e+00 0 0 0
498 1 1.1220506000123295e+01 1.9380203602974053e+01 2.7588841019613644e+00 0 0 0
503 1 1.2549691451809736e+01 2.0841539386998882e+01 4.0732683050246141e+00 0 0 0
506 2 1.6565732750785589e+01 1.9443026492184007e+01 2.6553837611844906e+00 0 0 0
511 2 1.8007930313397075e+01 2.0770380858398756e+01 4.0008910927510808e+00 0 0 0
514 1 2.2365510433031051e+01 1.9323729189890912e+01 2.6235909636948773e+00 0 0 0
519 1 2.3643099434744663e+01 2.0685707204594866e+01 4.0179487176002002e+00 0 0 0
643 1 2.8799229265102904e+00 2.2222345034242373e+01 2.6915552558207421e+00 0 0 0
648 1 4.2933688107418213e+00 2.3552510754450868e+01 4.0694267880679051e+00 0 0 0
651 2 8.4020718389904498e+00 2.2091013818805017e+01 2.6597094487408146e+00 0 0 0
656 2 9.7733107656283860e+00 2.3497102377337761e+01 4.1529172473600138e+00 0 0 0
659 1 1.3889862843950157e+01 2.2188706823786330e+01 2.6343060532749547e+00 0 0 0
664 1 1.5199624733041450e+01 2.3629677302990849e+01 4.0626965170887956e+00 0 0 0
667 2 1.9470803806165801e+01 2.2181050416724531e+01 2.6108003998362612e+00 0 0 0
672 2 2.0880722244718985e+01 2.3601612524465235e+01 4.1075485613658289e+00 0 0 0
675 1 2.5018499412599525e+01 2.2203121015223683e+01 2.7288220556800837e+00 0 0 0
680 1 2.6371444787091487e+01 2.3568243245934823e+01 4.1570163597073115e+00 0 0 0
642 1 1.7107563298319314e-01 2.4828730137989126e+01 2.7712771461929488e+00 0 0 0
647 1 1.5005708976999661e+00 2.6301285766076099e+01 4.1430653453460815e+00 0 0 0
650 2 5.6371837085158338e+00 2.4954981103415761e+01 2.7154167370245910e+00 0 0 0
655 2 7.0448536578635448e+00 2.6319325449390021e+01 4.0675554775906120e+00 0 0 0
658 1 1.1291327091062174e+01 2.4785907649107234e+01 2.6671978277435793e+00 0 0 0
663 1 1.2544214300816130e+01 2.6313104560550681e+01 4.0071256033303131e+00 0 0 0
666 2 1.6479007098194046e+01 2.4976915390898974e+01 2.6105894773056977e+00 0 0 0
671 2 1.7938659741427333e+01 2.6314646465049730e+01 4.1856955021180662e+00 0 0 0
674 1 2.2273663768251527e+01 2.4919538184724875e+01 2.7583475177642978e+00 0 0 0
679 1 2.3674748756018086e+01 2.6368312657404338e+01 4.0483409954149661e+00 0 0 0
1601 1 2.0842746600778295e-01 -1.2788535092117861e-01 5.4125855913977512e+00 0 0 0
1605 1 1.5242387649373261e+00 1.3242605592712804e+00 6.9068006244798408e+00 0 0 0
1609 2 5.6064608613510583e+00 -6.4914272117785776e-02 5.4284466308847952e+00 0 0 0
1613 2 7.0229437656123652e+00 1.3064797949717362e+00 6.8871666097847397e+00 0 0 0
1617 1 1.1290249229164175e+01 -8.0949635235835732e-02 5.5172819079234001e+00 0 0 0
1621 1 1.2553931863856370e+01 1.4170730642833700e+00 6.7648326690140808e+00 0 0 0
1625 2 1.6542666635603176e+01 -3.7661960216358974e-02 5.4561566287782455e+00 0 0 0
1629 2 1.8014556323609657e+01 1.3435392698202993e+00 6.7195528995561720e+00 0 0 0
1633 1 2.2263970440090198e+01 -1.3264030550107903e-01 5.4824871242461972e+00 0 0 0
1637 1 2.3637624636400592e+01 1.3029570456461881e+00 6.8134678094635142e+00 0 0 0
1604 1 2.8997776580464119e+00 2.6431225365414188e+00 5.5240844152059401e+00 0 0 0
1606 1 4.1241270449034353e+00 4.1587676680409773e+00 6.8147382380777737e+00 0 0 0
1612 2 8.5060318237934869e+00 2.5859444097598687e+00 5.4800693474698292e+00 0 0 0
1614 2 9.8652866124979397e+00 4.0773686147941337e+00 6.9186708914227326e+00 0 0 0
1620 1 1.3893137333216112e+01 2.7249856473030984e+00 5.4292299961515402e+00 0 0 0
1622 1 1.5289763524858630e+01 4.1364726167733767e+00 6.8788590763040913e+00 0 0 0
1628 2 1.9481933762398622e+01 2.6347268351178390e+00 5.3631391082317679e+00 0 0 0
1630 2 2.0911259665186023e+01 3.9750691539266816e+00 6.8321913741966744e+00 0 0 0
1636 1 2.4992857437372216e+01 2.7061822283470374e+00 5.4898627373970763e+00 0 0 0
1638 1 2.6311163464625189e+01 4.0658479093012279e+00 6.9254840253862664e+00 0 0 0
1761 1 1.3698989378030199e-01 5.3447270946154335e+00 5.4683736427017475e+00 0 0 0
1765 1 1.4902098877242222e+00 6.7831737617566761e+00 6.8112993314826555e+00 0 0 0
1769 2 5.5733380878041849e+00 5.4730413687573547e+00 5.4483278862091460e+00 0 0 0
1773 2 6.9456309719916112e+00 6.8553201758096920e+00 6.8938188176486328e+00 0 0 0
1777 1 1.1259430619973804e+01 5.5084424119977431e+00 5.5033519288622603e+00 0 0 0
1781 1 1.2565737225791990e+01 6.9093772153446276e+00 6.8277043818130494e+00 0 0 0
1785 2 1.6591672675991752e+01 5.5022527506552930e+00 5.4383646843273930e+00 0 0 0
1789 2 1.8165915424141023e+01 6.8518948599770670e+00 6.7911390396203455e+00 0 0 0
1793 1 2.2406277861271743e+01 5.3739264114657832e+00 5.3957549251459556e+00 0 0 0
1797 1 2.3759563083745306e+01 6.7567228815871285e+00 6.8176189643710989e+00 0 0 0
1764 1 2.8317005851114931e+00 8.1947692051991616e+00 5.3721469484483935e+00 0 0 0
1766 1 4.0994981896387364e+00 9.6316765728273008e+00 6.7281212968027404e+00 0 0 0
1772 2 8.3924423514518907e+00 8.2187275728699589e+00 5.4174050791342863e+00 0 0 0
1774 2 9.9152071699358721e+00 9.5796227290204516e+00 6.8742756059873473e+00 0 0 0
1780 1 1.3857317601423556e+01 8.3930858512109126e+00 5.4901075719905448e+00 0 0 0
1782 1 1.5274448791129517e+01 9.6666941603840773e+00 6.8734255041149890e+00 0 0 0
1788 2 1.9496533568642995e+01 8.2879281358352461e+00 5.4420042542445337e+00 0 0 0
1790 2 2.1066339434673743e+01 9.6292283219999213e+00 6.9397138294822600e+00 0 0 0
1796 1 2.4928812030031413e+01 8.1677847821688356e+00 5.2868763560175864e+00 0 0 0
1798 1 2.6237818190733687e+01 9.6669718788353176e+00 6.7385022383692119e+00 0 0 0
1921 1 2.6169655709689338e-01 1.0913912246555096e+01 5.4507992583298579e+00 0 0 0
1925 1 1.5515358628347058e+00 1.2329753035618358e+01 6.8172673297755608e+00 0 0 0
1929 2 5.4814401055792761e+00 1.1083642121634032e+01 5.4266289858928767e+00 0 0 0
1933 2 7.0091518929430157e+00 1.2366353983429573e+01 6.7764067999371598e+00 0 0 0
1937 1 1.1259703852310562e+01 1.1159582893164373e+01 5.3860854007090779e+00 0 0 0
1941 1 1.2584346224218740e+01 1.2527278360835016e+01 6.8460972324279572e+00 0 0 0
1945 2 1.6701352453065706e+01 1.1021977964530276e+01 5.4823851567363775e+00 0 0 0
1949 2 1.8163370254425196e+01 1.2459185239922625e+01 6.9214043723586842e+00 0 0 0
1953 1 2.2343068801912604e+01 1.0988819397051772e+01 5.5193859212972836e+00 0 0 0
1957 1 2.3664900023337626e+01 1.2416901105099686e+01 6.7953014084790553e+00 0 0 0
1924 1 2.8298279803178299e+00 1.3782475653531810e+01 5.4099696764776981e+00 0 0 0
1926 1 4.1596888856885927e+00 1.5124581218558824e+01 6.7542736847632128e+00 0 0 0
1932 2 8.3998651754847398e+00 1.3757665012818910e+01 5.4397266211274511e+00 0 0 0
1934 2 9.8498894563007902e+00 1.5105225248833870e+01 6.7689296414640818e+00 0 0 0
1940 1 1.3912214786240666e+01 1.3803379609757469e+01 5.4024788613973227e+00 0 0 0
1942 1 1.5210552349877958e+01 1.5167740535368736e+01 6.7499384166561445e+00 0 0 0
1948 2 1.9572900386344482e+01 1.3781734038131750e+01 5.4638175721535722e+00 0 0 0
1950 2 2.0877650406233510e+01 1.5196711046318335e+01 6.8482781118689520e+00 0 0 0
1956 1 2.5071852298984172e+01 1.3748012551691110e+01 5.4692126690151435e+00 0 0 0
1958 1 2.6393554037381652e+01 1.5240020483491200e+01 6.7655527071606194e+00 0 0 0
2081 1 2.6496053643255180e-01 1.6513952368981283e+01 5.2975946235952263e+00 0 0 0
2085 1 1.5420361408280421e+00 1.7959791449770144e+01 6.8019409152371999e+00 0 0 0
2089 2 5.5679720502823153e+00 1.6484414890391601e+01 5.4014352756357971e+00 0 0 0
2093 2 6.9581676921161071e+00 1.7950349158426203e+01 6.7690788602816170e+00 0 0 0
2097 1 1.1222490196573899e+01 1.6585603484337394e+01 5.4775459873053540e+00 0 0 0
2101 1 1.2624247471505567e+01 1.7888372993930112e+01 6.9126321387939500e+00 0 0 0
2105 2 1.6527967777278164e+01 1.6608253502309168e+01 5.3721555965209093e+00 0 0 0
2109 2 1.7968268872964938e+01 1.8021930476763949e+01 6.7486403096499519e+00 0 0 0
2113 1 2.2272487185229632e+01 1.6592272474317472e+01 5.4966805084505301e+00 0 0 0
2117 1 2.3644974393719149e+01 1.7931140168574817e+01 6.7305434399481356e+00 0 0 0
2084 1 2.9866252989226236e+00 1.9309621723140893e+01 5.3065009904410259e+00 0 0 0
2086 1 4.2288990816156309e+00 2.0776085042158638e+01 6.8000953874101029e+00 0 0 0
2092 2 8.4235688870019505e+00 1.9300783288660604e+01 5.4468975070275052e+00 0 0 0
2094 2 9.8440197797707505e+00 2.0671211133461266e+01 6.7921942793761483e+00 0 0 0
2100 1 1.3847480030126114e+01 1.9470186322918707e+01 5.5128597264026507e+00 0 0 0
2102 1 1.5214142100675806e+01 2.0909430276730941e+01 6.8708138793556648e+00 0 0 0
2108 2 1.9452623910964032e+01 1.9354924743029002e+01 5.3737726782389617e+00 0 0 0
2110 2 2.0934617868556234e+01 2.0820749533156224e+01 6.7852530157340007e+00 0 0 0
2116 1 2.5008743290330084e+01 1.9273493642287285e+01 5.4530950119257433e+00 0 0 0
2118 1 2.6415354643107893e+01 2.0656644990076060e+01 6.7567860032549563e+00 0 0 0
2241 1 3.3162211383662737e-01 2.2054749958925708e+01 5.5300892529252446e+00 0 0 0
2245 1 1.6410020094202376e+00 2.3532551590188135e+01 6.9062459673955949e+00 0 0 0
2249 2 5.6780852702502358e+00 2.2096408026904125e+01 5.4560451012595008e+00 0 0 0
2253 2 7.0264790457812225e+00 2.3623338936342719e+01 6.8625511401252739e+00 0 0 0
2257 1 1.1221574199523529e+01 2.2181994427169077e+01 5.4607840836314656e+00 0 0 0
2261 1 1.2519841383115475e+01 2.3637570844070094e+01 6.8728434008989989e+00 0 0 0
2265 2 1.6537273345410551e+01 2.2309399485048058e+01 5.4408341242308245e+00 0 0 0
2269 2 1.7991338236382671e+01 2.3673702326618198e+01 6.8448244136896506e+00 0 0 0
2273 1 2.2271463643339857e+01 2.2211947611344858e+01 5.4550143994147353e+00 0 0 0
2277 1 2.3759906949615630e+01 2.3495743386036782e+01 6.7625926371231859e+00 0 0 0
2244 1 2.9421619596799755e+00 2.4954777653005142e+01 5.4465955302141786e+00 0 0 0
2246 1 4.1787127754432012e+00 2.6232675771181100e+01 6.8592719266315774e+00 0 0 0
2252 2 8.4434527256921417e+00 2.4968106511902754e+01 5.5120264771167031e+00 0 0 0
2254 2 9.8318424188790221e+00 2.6331857515150674e+01 6.8975452337563059e+00 0 0 0
2260 1 1.3916232888519778e+01 2.5040776433542636e+01 5.4755573994217972e+00 0 0 0
2262 1 1.5133249167599738e+01 2.6329656803877125e+01 6.9946368562854904e+00 0 0 0
2268 2 1.9414789101287163e+01 2.5005763509793294e+01 5.5150426365391887e+00 0 0 0
2270 2 2.0925041139686883e+01 2.6377018283685761e+01 6.9114598138436074e+00 0 0 0
2276 1 2.5016165017783962e+01 2.5019889056714486e+01 5.4511891701069981e+00 0 0 0
2278 1 2.6250311924367420e+01 2.6413108658085587e+01 6.8729427922823376e+00 0 0 0
1603 1 2.8791267515008436e+00 -7.3120623221720304e-02 8.1636376214975854e+00 0 0 0
1608 1 4.1639690248350556e+00 1.2520478533905304e+00 9.6885383487757100e+00 0 0 0
1611 2 8.4768256535426545e+00 -1.1605270163735995e-01 8.3104357817122416e+00 0 0 0
1616 2 9.9243514777381279e+00 1.2675103750748014e+00 9.7080060718170973e+00 0 0 0
1619 1 1.3829385277275492e+01 -6.2007501727217647e-02 8.2743482866625975e+00 0 0 0
1624 1 1.5220540077210376e+01 1.3035814586160328e+00 9.5832819486049186e+00 0 0 0
1627 2 1.9449482990797542e+01 -3.2777981114131591e-02 8.1538791587694632e+00 0 0 0
1632 2 2.0917633304005406e+01 1.2260586097922670e+00 9.6167500924214107e+00 0 0 0
1635 1 2.4989440990894764e+01 -1.1971822019825568e-01 8.2137538026435557e+00 0 0 0
1640 1 2.6278352913423678e+01 1.3257243135097394e+00 9.6611918059998203e+00 0 0 0
1602 1 1.9346729586371852e-01 2.7162972070971105e+00 8.3174343885348723e+00 0 0 0
1607 1 1.5593319917913144e+00 4.0868885194550009e+00 9.6810936052601857e+00 0 0 0
1610 2 5.5258690168884712e+00 2.6313269070441097e+00 8.1855454938715297e+00 0 0 0
1615 2 7.0073723467331774e+00 4.0734660605042574e+00 9.6292192714577265e+00 0 0 0
1618 1 1.1285888547549678e+01 2.6761234760850670e+00 8.2625041451619374e+00 0 0 0
1623 1 1.2472247796861630e+01 4.1993652611584862e+00 9.6938889377206880e+00 0 0 0
1626 2 1.6675336325278082e+01 2.7124762895373600e+00 8.2276035310934841e+00 0 0 0
1631 2 1.8068763851249159e+01 4.1230304363617432e+00 9.6683334368242289e+00 0 0 0
1634 1 2.2413326547128538e+01 2.6259284722857728e+00 8.2220117555520176e+00 0 0 0
1639 1 2.3757299525197848e+01 4.1491971065971436e+00 9.5670212710091747e+00 0 0 0
1763 1 2.9189361790816495e+00 5.4698869574759925e+00 8.2005129842424047e+00 0 0 0
1768 1 4.1334125049376818e+00 6.8733872216538296e+00 9.7045218164062135e+00 0 0 0
1771 2 8.4083410440676527e+00 5.5410740992095011e+00 8.3098718358444366e+00 0 0 0
1776 2 9.8277196976817773e+00 6.9464671224989036e+00 9.7170959649608868e+00 0 0 0
1779 1 1.3902118526171288e+01 5.4858782887333488e+00 8.3034651999042506e+00 0 0 0
1784 1 1.5300235914079293e+01 6.8446583720861272e+00 9.7354673576053905e+00 0 0 0
1787 2 1.9599234491287817e+01 5.4718792329162174e+00 8.2882770136377264e+00 0 0 0
1792 2 2.1110414021163812e+01 6.7736442622318878e+00 9.6572778470512759e+00 0 0 0
1795 1 2.5150761933158631e+01 5.5534635595054445e+00 8.2796256616357038e+00 0 0 0
1800 1 2.6319989506248966e+01 7.0050521003230957e+00 9.6690976943864495e+00 0 0 0
1762 1 1.7455638354188030e-01 8.1062406838087284e+00 8.2339585524884313e+00 0 0 0
1767 1 1.5164871161674025e+00 9.5009448103221352e+00 9.6360174273662835e+00 0 0 0
1770 2 5.4942806088828711e+00 8.2546427076763251e+00 8.1789603410892227e+00 0 0 0
1775 2 6.9218047255542308e+00 9.5970039269936116e+00 9.6026146778004442e+00 0 0 0
1778 1 1.1311628614006286e+01 8.3173298378879768e+00 8.2853437099120111e+00 0 0 0
1783 1 1.2586460045721807e+01 9.6249651175069957e+00 9.6436550181190643e+00 0 0 0
1786 2 1.6618723448110252e+01 8.1164974071070635e+00 8.2206736071441497e+00 0 0 0
1791 2 1.8153373883122043e+01 9.4603882205773697e+00 9.6513761282498027e+00 0 0 0
1794 1 2.2493558043705157e+01 8.1408050653285144e+00 8.2539430418840478e+00 0 0 0
1799 1 2.3716956686067732e+01 9.5214476799369390e+00 9.6521482555999611e+00 0 0 0
1923 1 2.8384884199441207e+00 1.1017383491640500e+01 8.1986638589437906e+00 0 0 0
1928 1 4.2468363824164488e+00 1.2324711444303492e+01 9.4785822755316502e+00 0 0 0
1931 2 8.4166323467442865e+00 1.0953444019771698e+01 8.2868292974614803e+00 0 0 0
1936 2 9.9731521178103115e+00 1.2489385683657101e+01 9.6898577918135285e+00 0 0 0
1939 1 1.3895124955328985e+01 1.1067530012247294e+01 8.2998312298121952e+00 0 0 0
1944 1 1.5373700690325581e+01 1.2404765939551915e+01 9.6804086594222358e+00 0 0 0
1947 2 1.9501178788924825e+01 1.1059576771704151e+01 8.2730128099227755e+00 0 0 0
1952 2 2.1036371506828949e+01 1.2409057976998149e+01 9.7077289734911236e+00 0 0 0
1955 1 2.4994376686246639e+01 1.0948293806572906e+01 8.2727021875153426e+00 0 0 0
1960 1 2.6264865061866814e+01 1.2492909804636621e+01 9.5734373616699706e+00 0 0 0
1922 1 2.5298394787965411e-01 1.3670135739800923e+01 8.1435108422515849e+00 0 0 0
1927 1 1.6529387331811274e+00 1.5149538103347286e+01 9.5562042875563353e+00 0 0 0
1930 2 5.5978195022443193e+00 1.3728221102306373e+01 8.2072468373889933e+00 0 0 0
1935 2 6.9812658321923022e+00 1.5124583384432167e+01 9.6086579003192032e+00 0 0 0
1938 1 1.1312637002099345e+01 1.3839654053650685e+01 8.2649343763418983e+00 0 0 0
1943 1 1.2523589475524657e+01 1.5152297135024615e+01 9.8098517478519831e+00 0 0 0
1946 2 1.6593909345013902e+01 1.3858296704476151e+01 8.2052332985741625e+00 0 0 0
1951 2 1.8163670777142613e+01 1.5163816317619876e+01 9.6297441285389009e+00 0 0 0
1954 1 2.2294515575449335e+01 1.3708909681777232e+01 8.2232734869629702e+00 0 0 0
1959 1 2.3614744398319495e+01 1.5242357414615409e+01 9.6156433130351466e+00 0 0 0
2083 1 2.9395169476970238e+00 1.6540077072754986e+01 8.1717054598357439e+00 0 0 0
2088 1 4.1036591063892747e+00 1.8023930068689573e+01 9.6491366190632490e+00 0 0 0
2091 2 8.4866440728942116e+00 1.6503498360035543e+01 8.1170682586727150e+00 0 0 0
2096 2 9.8744191580858303e+00 1.7883081123186898e+01 9.6360968627256636e+00 0 0 0