LAMMPS pos FILE

6400 atoms

1 atom types

-0.678875 270.871125 xlo xhi
-0.678875 21.045125000000002 ylo yhi
-0.678875 21.045125000000002 zlo zhi

Masses

1 28.0855

Atoms

1 1 0.0 0.0 0.0
2 1 0.0 2.7155 2.7155
3 1 2.7155 0.0 2.7155
4 1 2.7155 2.7155 0.0
5 1 1.35775 1.35775 1.35775
6 1 4.07325 4.07325 1.35775
7 1 1.35775 4.07325 4.07325
8 1 4.07325 1.35775 4.07325
9 1 5.431 0.0 0.0
10 1 5.431 2.7155 2.7155
11 1 8.1465 0.0 2.7155
12 1 8.1465 2.7155 0.0
13 1 6.78875 1.35775 1.35775
14 1 9.50425 4.07325 1.35775
15 1 6.78875 4.07325 4.07325
16 1 9.50425 1.35775 4.07325
17 1 10.862 0.0 0.0
18 1 10.862 2.7155 2.7155
19 1 13.5775 0.0 2.7155
20 1 13.5775 2.7155 0.0
21 1 12.21975 1.35775 1.35775
22 1 14.93525 4.07325 1.35775
23 1 12.21975 4.07325 4.07325
24 1 14.93525 1.35775 4.07325
25 1 16.293 0.0 0.0
26 1 16.293 2.7155 2.7155
27 1 19.0085 0.0 2.7155
28 1 19.0085 2.7155 0.0
29 1 17.65075 1.35775 1.35775
30 1 20.36625 4.07325 1.35775
31 1 17.65075 4.07325 4.07325
32 1 20.36625 1.35775 4.07325
33 1 21.724 0.0 0.0
34 1 21.724 2.7155 2.7155
35 1 24.4395 0.0 2.7155
36 1 24.4395 2.7155 0.0
37 1 23.08175 1.35775 1.35775
38 1 25.797250000000002 4.07325 1.35775
39 1 23.08175 4.07325 4.07325
40 1 25.797250000000002 1.35775 4.07325
41 1 27.155 0.0 0.0
42 1 27.155 2.7155 2.7155
43 1 29.8705 0.0 2.7155
44 1 29.8705 2.7155 0.0
45 1 28.51275 1.35775 1.35775
46 1 31.22825 4.07325 1.35775
47 1 28.51275 4.07325 4.07325
48 1 31.22825 1.35775 4.07325
49 1 32.586 0.0 0.0
50 1 32.586 2.7155 2.7155
51 1 35.3015 0.0 2.7155
52 1 35.3015 2.7155 0.0
53 1 33.94375 1.35775 1.35775
54 1 36.65925 4.07325 1.35775
55 1 33.94375 4.07325 4.07325
56 1 36.65925 1.35775 4.07325
57 1 38.017 0.0 0.0
58 1 38.017 2.7155 2.7155
59 1 40.7325 0.0 2.7155
60 1 40.7325 2.7155 0.0
61 1 39.37475 1.35775 1.35775
62 1 42.09025 4.07325 1.35775
63 1 39.37475 4.07325 4.07325
64 1 42.09025 1.35775 4.07325
65 1 43.448 0.0 0.0
66 1 43.448 2.7155 2.7155
67 1 46.1635 0.0 2.7155
68 1 46.1635 2.7155 0.0
69 1 44.80575 1.35775 1.35775
70 1 47.52125 4.07325 1.35775
71 1 44.80575 4.07325 4.07325
72 1 47.52125 1.35775 4.07325
73 1 48.879 0.0 0.0
74 1 48.879 2.7155 2.7155
75 1 51.594500000000004 0.0 2.7155
76 1 51.594500000000004 2.7155 0.0
77 1 50.23675 1.35775 1.35775
78 1 52.95225 4.07325 1.35775
79 1 50.23675 4.07325 4.07325
80 1 52.95225 1.35775 4.07325
81 1 54.31 0.0 0.0
82 1 54.31 2.7155 2.7155
83 1 57.0255 0.0 2.7155
84 1 57.0255 2.7155 0.0
85 1 55.66775 1.35775 1.35775
86 1 58.383250000000004 4.07325 1.35775
87 1 55.66775 4.07325 4.07325
88 1 58.383250000000004 1.35775 4.07325
89 1 59.741 0.0 0.0
90 1 59.741 2.7155 2.7155
91 1 62.4565 0.0 2.7155
92 1 62.4565 2.7155 0.0
93 1 61.09875 1.35775 1.35775
94 1 63.81425 4.07325 1.35775
95 1 61.09875 4.07325 4.07325
96 1 63.81425 1.35775 4.07325
97 1 65.172 0.0 0.0
98 1 65.172 2.7155 2.7155
99 1 67.8875 0.0 2.7155
100 1 67.8875 2.7155 0.0
101 1 66.52975 1.35775 1.35775
102 1 69.24525 4.07325 1.35775
103 1 66.52975 4.07325 4.07325
104 1 69.24525 1.35775 4.07325
105 1 70.603 0.0 0.0
106 1 70.603 2.7155 2.7155
107 1 73.3185 0.0 2.7155
108 1 73.3185 2.7155 0.0
109 1 71.96075 1.35775 1.35775
110 1 74.67625 4.07325 1.35775
111 1 71.96075 4.07325 4.07325
112 1 74.67625 1.35775 4.07325
113 1 76.034 0.0 0.0
114 1 76.034 2.7155 2.7155
115 1 78.7495 0.0 2.7155
116 1 78.7495 2.7155 0.0
117 1 77.39175 1.35775 1.35775
118 1 80.10725000000001 4.07325 1.35775
119 1 77.39175 4.07325 4.07325
120 1 80.10725000000001 1.35775 4.07325
121 1 81.465 0.0 0.0
122 1 81.465 2.7155 2.7155
123 1 84.1805 0.0 2.7155
124 1 84.1805 2.7155 0.0
125 1 82.82275 1.35775 1.35775
126 1 85.53825 4.07325 1.35775
127 1 82.82275 4.07325 4.07325
128 1 85.53825 1.35775 4.07325
129 1 86.896 0.0 0.0
130 1 86.896 2.7155 2.7155
131 1 89.6115 0.0 2.7155
132 1 89.6115 2.7155 0.0
133 1 88.25375 1.35775 1.35775
134 1 90.96925 4.07325 1.35775
135 1 88.25375 4.07325 4.07325
136 1 90.96925 1.35775 4.07325
137 1 92.327 0.0 0.0
138 1 92.327 2.7155 2.7155
139 1 95.0425 0.0 2.7155
140 1 95.0425 2.7155 0.0
141 1 93.68475 1.35775 1.35775
142 1 96.40025 4.07325 1.35775
143 1 93.68475 4.07325 4.07325
144 1 96.40025 1.35775 4.07325
145 1 97.758 0.0 0.0
146 1 97.758 2.7155 2.7155
147 1 100.4735 0.0 2.7155
148 1 100.4735 2.7155 0.0
149 1 99.11575 1.35775 1.35775
150 1 101.83125 4.07325 1.35775
151 1 99.11575 4.07325 4.07325
152 1 101.83125 1.35775 4.07325
153 1 103.18900000000001 0.0 0.0
154 1 103.18900000000001 2.7155 2.7155
155 1 105.9045 0.0 2.7155
156 1 105.9045 2.7155 0.0
157 1 104.54675 1.35775 1.35775
158 1 107.26225 4.07325 1.35775
159 1 104.54675 4.07325 4.07325
160 1 107.26225 1.35775 4.07325
161 1 108.62 0.0 0.0
162 1 108.62 2.7155 2.7155
163 1 111.3355 0.0 2.7155
164 1 111.3355 2.7155 0.0
165 1 109.97775 1.35775 1.35775
166 1 112.69325 4.07325 1.35775
167 1 109.97775 4.07325 4.07325
168 1 112.69325 1.35775 4.07325
169 1 114.051 0.0 0.0
170 1 114.051 2.7155 2.7155
171 1 116.76650000000001 0.0 2.7155
172 1 116.76650000000001 2.7155 0.0
173 1 115.40875 1.35775 1.35775
174 1 118.12425 4.07325 1.35775
175 1 115.40875 4.07325 4.07325
176 1 118.12425 1.35775 4.07325
177 1 119.482 0.0 0.0
178 1 119.482 2.7155 2.7155
179 1 122.1975 0.0 2.7155
180 1 122.1975 2.7155 0.0
181 1 120.83975 1.35775 1.35775
182 1 123.55525 4.07325 1.35775
183 1 120.83975 4.07325 4.07325
184 1 123.55525 1.35775 4.07325
185 1 124.913 0.0 0.0
186 1 124.913 2.7155 2.7155
187 1 127.6285 0.0 2.7155
188 1 127.6285 2.7155 0.0
189 1 126.27075 1.35775 1.35775
190 1 128.98625 4.07325 1.35775
191 1 126.27075 4.07325 4.07325
192 1 128.98625 1.35775 4.07325
193 1 130.344 0.0 0.0
194 1 130.344 2.7155 2.7155
195 1 133.0595 0.0 2.7155
196 1 133.0595 2.7155 0.0
197 1 131.70175 1.35775 1.35775
198 1 134.41725 4.07325 1.35775
199 1 131.70175 4.07325 4.07325
200 1 134.41725 1.35775 4.07325
201 1 135.775 0.0 0.0
202 1 135.775 2.7155 2.7155
203 1 138.4905 0.0 2.7155
204 1 138.4905 2.7155 0.0
205 1 137.13275 1.35775 1.35775
206 1 139.84825 4.07325 1.35775
207 1 137.13275 4.07325 4.07325
208 1 139.84825 1.35775 4.07325
209 1 141.206 0.0 0.0
210 1 141.206 2.7155 2.7155
211 1 143.9215 0.0 2.7155
212 1 143.9215 2.7155 0.0
213 1 142.56375 1.35775 1.35775
214 1 145.27925 4.07325 1.35775
215 1 142.56375 4.07325 4.07325
216 1 145.27925 1.35775 4.07325
217 1 146.637 0.0 0.0
218 1 146.637 2.7155 2.7155
219 1 149.3525 0.0 2.7155
220 1 149.3525 2.7155 0.0
221 1 147.99475 1.35775 1.35775
222 1 150.71025 4.07325 1.35775
223 1 147.99475 4.07325 4.07325
224 1 150.71025 1.35775 4.07325
225 1 152.068 0.0 0.0
226 1 152.068 2.7155 2.7155
227 1 154.7835 0.0 2.7155
228 1 154.7835 2.7155 0.0
229 1 153.42575 1.35775 1.35775
230 1 156.14125 4.07325 1.35775
231 1 153.42575 4.07325 4.07325
232 1 156.14125 1.35775 4.07325
233 1 157.499 0.0 0.0
234 1 157.499 2.7155 2.7155
235 1 160.21450000000002 0.0 2.7155
236 1 160.21450000000002 2.7155 0.0
237 1 158.85675 1.35775 1.35775
238 1 161.57225 4.07325 1.35775
239 1 158.85675 4.07325 4.07325
240 1 161.57225 1.35775 4.07325
241 1 162.93 0.0 0.0
242 1 162.93 2.7155 2.7155
243 1 165.6455 0.0 2.7155
244 1 165.6455 2.7155 0.0
245 1 164.28775 1.35775 1.35775
246 1 167.00325 4.07325 1.35775
247 1 164.28775 4.07325 4.07325
248 1 167.00325 1.35775 4.07325
249 1 168.361 0.0 0.0
250 1 168.361 2.7155 2.7155
251 1 171.0765 0.0 2.7155
252 1 171.0765 2.7155 0.0
253 1 169.71875 1.35775 1.35775
254 1 172.43425 4.07325 1.35775
255 1 169.71875 4.07325 4.07325
256 1 172.43425 1.35775 4.07325
257 1 173.792 0.0 0.0
258 1 173.792 2.7155 2.7155
259 1 176.5075 0.0 2.7155
260 1 176.5075 2.7155 0.0
261 1 175.14975 1.35775 1.35775
262 1 177.86525 4.07325 1.35775
263 1 175.14975 4.07325 4.07325
264 1 177.86525 1.35775 4.07325
265 1 179.223 0.0 0.0
266 1 179.223 2.7155 2.7155
267 1 181.9385 0.0 2.7155
268 1 181.9385 2.7155 0.0
269 1 180.58075 1.35775 1.35775
270 1 183.29625000000001 4.07325 1.35775
271 1 180.58075 4.07325 4.07325
272 1 183.29625000000001 1.35775 4.07325
273 1 184.654 0.0 0.0
274 1 184.654 2.7155 2.7155
275 1 187.3695 0.0 2.7155
276 1 187.3695 2.7155 0.0
277 1 186.01175 1.35775 1.35775
278 1 188.72725 4.07325 1.35775
279 1 186.01175 4.07325 4.07325
280 1 188.72725 1.35775 4.07325
281 1 190.085 0.0 0.0
282 1 190.085 2.7155 2.7155
283 1 192.8005 0.0 2.7155
284 1 192.8005 2.7155 0.0
285 1 191.44275 1.35775 1.35775
286 1 194.15825 4.07325 1.35775
287 1 191.44275 4.07325 4.07325
288 1 194.15825 1.35775 4.07325
289 1 195.516 0.0 0.0
290 1 195.516 2.7155 2.7155
291 1 198.2315 0.0 2.7155
292 1 198.2315 2.7155 0.0
293 1 196.87375 1.35775 1.35775
294 1 199.58925 4.07325 1.35775
295 1 196.87375 4.07325 4.07325
296 1 199.58925 1.35775 4.07325
297 1 200.947 0.0 0.0
298 1 200.947 2.7155 2.7155
299 1 203.6625 0.0 2.7155
300 1 203.6625 2.7155 0.0
301 1 202.30475 1.35775 1.35775
302 1 205.02025 4.07325 1.35775
303 1 202.30475 4.07325 4.07325
304 1 205.02025 1.35775 4.07325
305 1 206.37800000000001 0.0 0.0
306 1 206.37800000000001 2.7155 2.7155
307 1 209.0935 0.0 2.7155
308 1 209.0935 2.7155 0.0
309 1 207.73575 1.35775 1.35775
310 1 210.45125000000002 4.07325 1.35775
311 1 207.73575 4.07325 4.07325
312 1 210.45125000000002 1.35775 4.07325
313 1 211.809 0.0 0.0
314 1 211.809 2.7155 2.7155
315 1 214.5245 0.0 2.7155
316 1 214.5245 2.7155 0.0
317 1 213.16675 1.35775 1.35775
318 1 215.88225 4.07325 1.35775
319 1 213.16675 4.07325 4.07325
320 1 215.88225 1.35775 4.07325
321 1 217.24 0.0 0.0
322 1 217.24 2.7155 2.7155
323 1 219.9555 0.0 2.7155
324 1 219.9555 2.7155 0.0
325 1 218.59775 1.35775 1.35775
326 1 221.31325 4.07325 1.35775
327 1 218.59775 4.07325 4.07325
328 1 221.31325 1.35775 4.07325
329 1 222.671 0.0 0.0
330 1 222.671 2.7155 2.7155
331 1 225.3865 0.0 2.7155
332 1 225.3865 2.7155 0.0
333 1 224.02875 1.35775 1.35775
334 1 226.74425 4.07325 1.35775
335 1 224.02875 4.07325 4.07325
336 1 226.74425 1.35775 4.07325
337 1 228.102 0.0 0.0
338 1 228.102 2.7155 2.7155
339 1 230.8175 0.0 2.7155
340 1 230.8175 2.7155 0.0
341 1 229.45975 1.35775 1.35775
342 1 232.17525 4.07325 1.35775
343 1 229.45975 4.07325 4.07325
344 1 232.17525 1.35775 4.07325
345 1 233.53300000000002 0.0 0.0
346 1 233.53300000000002 2.7155 2.7155
347 1 236.2485 0.0 2.7155
348 1 236.2485 2.7155 0.0
349 1 234.89075 1.35775 1.35775
350 1 237.60625 4.07325 1.35775
351 1 234.89075 4.07325 4.07325
352 1 237.60625 1.35775 4.07325
353 1 238.964 0.0 0.0
354 1 238.964 2.7155 2.7155
355 1 241.6795 0.0 2.7155
356 1 241.6795 2.7155 0.0
357 1 240.32175 1.35775 1.35775
358 1 243.03725 4.07325 1.35775
359 1 240.32175 4.07325 4.07325
360 1 243.03725 1.35775 4.07325
361 1 244.395 0.0 0.0
362 1 244.395 2.7155 2.7155
363 1 247.1105 0.0 2.7155
364 1 247.1105 2.7155 0.0
365 1 245.75275 1.35775 1.35775
366 1 248.46825 4.07325 1.35775
367 1 245.75275 4.07325 4.07325
368 1 248.46825 1.35775 4.07325
369 1 249.826 0.0 0.0
370 1 249.826 2.7155 2.7155
371 1 252.5415 0.0 2.7155
372 1 252.5415 2.7155 0.0
373 1 251.18375 1.35775 1.35775
374 1 253.89925 4.07325 1.35775
375 1 251.18375 4.07325 4.07325
376 1 253.89925 1.35775 4.07325
377 1 255.257 0.0 0.0
378 1 255.257 2.7155 2.7155
379 1 257.9725 0.0 2.7155
380 1 257.9725 2.7155 0.0
381 1 256.61475 1.35775 1.35775
382 1 259.33025 4.07325 1.35775
383 1 256.61475 4.07325 4.07325
384 1 259.33025 1.35775 4.07325
385 1 260.688 0.0 0.0
386 1 260.688 2.7155 2.7155
387 1 263.4035 0.0 2.7155
388 1 263.4035 2.7155 0.0
389 1 262.04575 1.35775 1.35775
390 1 264.76125 4.07325 1.35775
391 1 262.04575 4.07325 4.07325
392 1 264.76125 1.35775 4.07325
393 1 266.119 0.0 0.0
394 1 266.119 2.7155 2.7155
395 1 268.8345 0.0 2.7155
396 1 268.8345 2.7155 0.0
397 1 267.47675 1.35775 1.35775
398 1 270.19225 4.07325 1.35775
399 1 267.47675 4.07325 4.07325
400 1 270.19225 1.35775 4.07325
401 1 0.0 5.431 0.0
402 1 0.0 8.1465 2.7155
403 1 2.7155 5.431 2.7155
404 1 2.7155 8.1465 0.0
405 1 1.35775 6.78875 1.35775
406 1 4.07325 9.50425 1.35775
407 1 1.35775 9.50425 4.07325
408 1 4.07325 6.78875 4.07325
409 1 5.431 5.431 0.0
410 1 5.431 8.1465 2.7155
411 1 8.1465 5.431 2.7155
412 1 8.1465 8.1465 0.0
413 1 6.78875 6.78875 1.35775
414 1 9.50425 9.50425 1.35775
415 1 6.78875 9.50425 4.07325
416 1 9.50425 6.78875 4.07325
417 1 10.862 5.431 0.0
418 1 10.862 8.1465 2.7155
419 1 13.5775 5.431 2.7155
420 1 13.5775 8.1465 0.0
421 1 12.21975 6.78875 1.35775
422 1 14.93525 9.50425 1.35775
423 1 12.21975 9.50425 4.07325
424 1 14.93525 6.78875 4.07325
425 1 16.293 5.431 0.0
426 1 16.293 8.1465 2.7155
427 1 19.0085 5.431 2.7155
428 1 19.0085 8.1465 0.0
429 1 17.65075 6.78875 1.35775
430 1 20.36625 9.50425 1.35775
431 1 17.65075 9.50425 4.07325
432 1 20.36625 6.78875 4.07325
433 1 21.724 5.431 0.0
434 1 21.724 8.1465 2.7155
435 1 24.4395 5.431 2.7155
436 1 24.4395 8.1465 0.0
437 1 23.08175 6.78875 1.35775
438 1 25.797250000000002 9.50425 1.35775
439 1 23.08175 9.50425 4.07325
440 1 25.797250000000002 6.78875 4.07325
441 1 27.155 5.431 0.0
442 1 27.155 8.1465 2.7155
443 1 29.8705 5.431 2.7155
444 1 29.8705 8.1465 0.0
445 1 28.51275 6.78875 1.35775
446 1 31.22825 9.50425 1.35775
447 1 28.51275 9.50425 4.07325
448 1 31.22825 6.78875 4.07325
449 1 32.586 5.431 0.0
450 1 32.586 8.1465 2.7155
451 1 35.3015 5.431 2.7155
452 1 35.3015 8.1465 0.0
453 1 33.94375 6.78875 1.35775
454 1 36.65925 9.50425 1.35775
455 1 33.94375 9.50425 4.07325
456 1 36.65925 6.78875 4.07325
457 1 38.017 5.431 0.0
458 1 38.017 8.1465 2.7155
459 1 40.7325 5.431 2.7155
460 1 40.7325 8.1465 0.0
461 1 39.37475 6.78875 1.35775
462 1 42.09025 9.50425 1.35775
463 1 39.37475 9.50425 4.07325
464 1 42.09025 6.78875 4.07325
465 1 43.448 5.431 0.0
466 1 43.448 8.1465 2.7155
467 1 46.1635 5.431 2.7155
468 1 46.1635 8.1465 0.0
469 1 44.80575 6.78875 1.35775
470 1 47.52125 9.50425 1.35775
471 1 44.80575 9.50425 4.07325
472 1 47.52125 6.78875 4.07325
473 1 48.879 5.431 0.0
474 1 48.879 8.1465 2.7155
475 1 51.594500000000004 5.431 2.7155
476 1 51.594500000000004 8.1465 0.0
477 1 50.23675 6.78875 1.35775
478 1 52.95225 9.50425 1.35775
479 1 50.23675 9.50425 4.07325
480 1 52.95225 6.78875 4.07325
481 1 54.31 5.431 0.0
482 1 54.31 8.1465 2.7155
483 1 57.0255 5.431 2.7155
484 1 57.0255 8.1465 0.0
485 1 55.66775 6.78875 1.35775
486 1 58.383250000000004 9.50425 1.35775
487 1 55.66775 9.50425 4.07325
488 1 58.383250000000004 6.78875 4.07325
489 1 59.741 5.431 0.0
490 1 59.741 8.1465 2.7155
491 1 62.4565 5.431 2.7155
492 1 62.4565 8.1465 0.0
493 1 61.09875 6.78875 1.35775
494 1 63.81425 9.50425 1.35775
495 1 61.09875 9.50425 4.07325
496 1 63.81425 6.78875 4.07325
497 1 65.172 5.431 0.0
498 1 65.172 8.1465 2.7155
499 1 67.8875 5.431 2.7155
500 1 67.8875 8.1465 0.0
501 1 66.52975 6.78875 1.35775
502 1 69.24525 9.50425 1.35775
503 1 66.52975 9.50425 4.07325
504 1 69.24525 6.78875 4.07325
505 1 70.603 5.431 0.0
506 1 70.603 8.1465 2.7155
507 1 73.3185 5.431 2.7155
508 1 73.3185 8.1465 0.0
509 1 71.96075 6.78875 1.35775
510 1 74.67625 9.50425 1.35775
511 1 71.96075 9.50425 4.07325
512 1 74.67625 6.78875 4.07325
513 1 76.034 5.431 0.0
514 1 76.034 8.1465 2.7155
515 1 78.7495 5.431 2.7155
516 1 78.7495 8.1465 0.0
517 1 77.39175 6.78875 1.35775
518 1 80.10725000000001 9.50425 1.35775
519 1 77.39175 9.50425 4.07325
520 1 80.10725000000001 6.78875 4.07325
521 1 81.465 5.431 0.0
522 1 81.465 8.1465 2.7155
523 1 84.1805 5.431 2.7155
524 1 84.1805 8.1465 0.0
525 1 82.82275 6.78875 1.35775
526 1 85.53825 9.50425 1.35775
527 1 82.82275 9.50425 4.07325
528 1 85.53825 6.78875 4.07325
529 1 86.896 5.431 0.0
530 1 86.896 8.1465 2.7155
531 1 89.6115 5.431 2.7155
532 1 89.6115 8.1465 0.0
533 1 88.25375 6.78875 1.35775
534 1 90.96925 9.50425 1.35775
535 1 88.25375 9.50425 4.07325
536 1 90.96925 6.78875 4.07325
537 1 92.327 5.431 0.0
538 1 92.327 8.1465 2.7155
539 1 95.0425 5.431 2.7155
540 1 95.0425 8.1465 0.0
541 1 93.68475 6.78875 1.35775
542 1 96.40025 9.50425 1.35775
543 1 93.68475 9.50425 4.07325
544 1 96.40025 6.78875 4.07325
545 1 97.758 5.431 0.0
546 1 97.758 8.1465 2.7155
547 1 100.4735 5.431 2.7155
548 1 100.4735 8.1465 0.0
549 1 99.11575 6.78875 1.35775
550 1 101.83125 9.50425 1.35775
551 1 99.11575 9.50425 4.07325
552 1 101.83125 6.78875 4.07325
553 1 103.18900000000001 5.431 0.0
554 1 103.18900000000001 8.1465 2.7155
555 1 105.9045 5.431 2.7155
556 1 105.9045 8.1465 0.0
557 1 104.54675 6.78875 1.35775
558 1 107.26225 9.50425 1.35775
559 1 104.54675 9.50425 4.07325
560 1 107.26225 6.78875 4.07325
561 1 108.62 5.431 0.0
562 1 108.62 8.1465 2.7155
563 1 111.3355 5.431 2.7155
564 1 111.3355 8.1465 0.0
565 1 109.97775 6.78875 1.35775
566 1 112.69325 9.50425 1.35775
567 1 109.97775 9.50425 4.07325
568 1 112.69325 6.78875 4.07325
569 1 114.051 5.431 0.0
570 1 114.051 8.1465 2.7155
571 1 116.76650000000001 5.431 2.7155
572 1 116.76650000000001 8.1465 0.0
573 1 115.40875 6.78875 1.35775
574 1 118.12425 9.50425 1.35775
575 1 115.40875 9.50425 4.07325
576 1 118.12425 6.78875 4.07325
577 1 119.482 5.431 0.0
578 1 119.482 8.1465 2.7155
579 1 122.1975 5.431 2.7155
580 1 122.1975 8.1465 0.0
581 1 120.83975 6.78875 1.35775
582 1 123.55525 9.50425 1.35775
583 1 120.83975 9.50425 4.07325
584 1 123.55525 6.78875 4.07325
585 1 124.913 5.431 0.0
586 1 124.913 8.1465 2.7155
587 1 127.6285 5.431 2.7155
588 1 127.6285 8.1465 0.0
589 1 126.27075 6.78875 1.35775
590 1 128.98625 9.50425 1.35775
591 1 126.27075 9.50425 4.07325
592 1 128.98625 6.78875 4.07325
593 1 130.344 5.431 0.0
594 1 130.344 8.1465 2.7155
595 1 133.0595 5.431 2.7155
596 1 133.0595 8.1465 0.0
597 1 131.70175 6.78875 1.35775
598 1 134.41725 9.50425 1.35775
599 1 131.70175 9.50425 4.07325
600 1 134.41725 6.78875 4.07325
601 1 135.775 5.431 0.0
602 1 135.775 8.1465 2.7155
603 1 138.4905 5.431 2.7155
604 1 138.4905 8.1465 0.0
605 1 137.13275 6.78875 1.35775
606 1 139.84825 9.50425 1.35775
607 1 137.13275 9.50425 4.07325
608 1 139.84825 6.78875 4.07325
609 1 141.206 5.431 0.0
610 1 141.206 8.1465 2.7155
611 1 143.9215 5.431 2.7155
612 1 143.9215 8.1465 0.0
613 1 142.56375 6.78875 1.35775
614 1 145.27925 9.50425 1.35775
615 1 142.56375 9.50425 4.07325
616 1 145.27925 6.78875 4.07325
617 1 146.637 5.431 0.0
618 1 146.637 8.1465 2.7155
619 1 149.3525 5.431 2.7155
620 1 149.3525 8.1465 0.0
621 1 147.99475 6.78875 1.35775
622 1 150.71025 9.50425 1.35775
623 1 147.99475 9.50425 4.07325
624 1 150.71025 6.78875 4.07325
625 1 152.068 5.431 0.0
626 1 152.068 8.1465 2.7155
627 1 154.7835 5.431 2.7155
628 1 154.7835 8.1465 0.0
629 1 153.42575 6.78875 1.35775
630 1 156.14125 9.50425 1.35775
631 1 153.42575 9.50425 4.07325
632 1 156.14125 6.78875 4.07325
633 1 157.499 5.431 0.0
634 1 157.499 8.1465 2.7155
635 1 160.21450000000002 5.431 2.7155
636 1 160.21450000000002 8.1465 0.0
637 1 158.85675 6.78875 1.35775
638 1 161.57225 9.50425 1.35775
639 1 158.85675 9.50425 4.07325
640 1 161.57225 6.78875 4.07325
641 1 162.93 5.431 0.0
642 1 162.93 8.1465 2.7155
643 1 165.6455 5.431 2.7155
644 1 165.6455 8.1465 0.0
645 1 164.28775 6.78875 1.35775
646 1 167.00325 9.50425 1.35775
647 1 164.28775 9.50425 4.07325
648 1 167.00325 6.78875 4.07325
649 1 168.361 5.431 0.0
650 1 168.361 8.1465 2.7155
651 1 171.0765 5.431 2.7155
652 1 171.0765 8.1465 0.0
653 1 169.71875 6.78875 1.35775
654 1 172.43425 9.50425 1.35775
655 1 169.71875 9.50425 4.07325
656 1 172.43425 6.78875 4.07325
657 1 173.792 5.431 0.0
658 1 173.792 8.1465 2.7155
659 1 176.5075 5.431 2.7155
660 1 176.5075 8.1465 0.0
661 1 175.14975 6.78875 1.35775
662 1 177.86525 9.50425 1.35775
663 1 175.14975 9.50425 4.07325
664 1 177.86525 6.78875 4.07325
665 1 179.223 5.431 0.0
666 1 179.223 8.1465 2.7155
667 1 181.9385 5.431 2.7155
668 1 181.9385 8.1465 0.0
669 1 180.58075 6.78875 1.35775
670 1 183.29625000000001 9.50425 1.35775
671 1 180.58075 9.50425 4.07325
672 1 183.29625000000001 6.78875 4.07325
673 1 184.654 5.431 0.0
674 1 184.654 8.1465 2.7155
675 1 187.3695 5.431 2.7155
676 1 187.3695 8.1465 0.0
677 1 186.01175 6.78875 1.35775
678 1 188.72725 9.50425 1.35775
679 1 186.01175 9.50425 4.07325
680 1 188.72725 6.78875 4.07325
681 1 190.085 5.431 0.0
682 1 190.085 8.1465 2.7155
683 1 192.8005 5.431 2.7155
684 1 192.8005 8.1465 0.0
685 1 191.44275 6.78875 1.35775
686 1 194.15825 9.50425 1.35775
687 1 191.44275 9.50425 4.07325
688 1 194.15825 6.78875 4.07325
689 1 195.516 5.431 0.0
690 1 195.516 8.1465 2.7155
691 1 198.2315 5.431 2.7155
692 1 198.2315 8.1465 0.0
693 1 196.87375 6.78875 1.35775
694 1 199.58925 9.50425 1.35775
695 1 196.87375 9.50425 4.07325
696 1 199.58925 6.78875 4.07325
697 1 200.947 5.431 0.0
698 1 200.947 8.1465 2.7155
699 1 203.6625 5.431 2.7155
700 1 203.6625 8.1465 0.0
701 1 202.30475 6.78875 1.35775
702 1 205.02025 9.50425 1.35775
703 1 202.30475 9.50425 4.07325
704 1 205.02025 6.78875 4.07325
705 1 206.37800000000001 5.431 0.0
706 1 206.37800000000001 8.1465 2.7155
707 1 209.0935 5.431 2.7155
708 1 209.0935 8.1465 0.0
709 1 207.73575 6.78875 1.35775
710 1 210.45125000000002 9.50425 1.35775
711 1 207.73575 9.50425 4.07325
712 1 210.45125000000002 6.78875 4.07325
713 1 211.809 5.431 0.0
714 1 211.809 8.1465 2.7155
715 1 214.5245 5.431 2.7155
716 1 214.5245 8.1465 0.0
717 1 213.16675 6.78875 1.35775
718 1 215.88225 9.50425 1.35775
719 1 213.16675 9.50425 4.07325
720 1 215.88225 6.78875 4.07325
721 1 217.24 5.431 0.0
722 1 217.24 8.1465 2.7155
723 1 219.9555 5.431 2.7155
724 1 219.9555 8.1465 0.0
725 1 218.59775 6.78875 1.35775
726 1 221.31325 9.50425 1.35775
727 1 218.59775 9.50425 4.07325
728 1 221.31325 6.78875 4.07325
729 1 222.671 5.431 0.0
730 1 222.671 8.1465 2.7155
731 1 225.3865 5.431 2.7155
732 1 225.3865 8.1465 0.0
733 1 224.02875 6.78875 1.35775
734 1 226.74425 9.50425 1.35775
735 1 224.02875 9.50425 4.07325
736 1 226.74425 6.78875 4.07325
737 1 228.102 5.431 0.0
738 1 228.102 8.1465 2.7155
739 1 230.8175 5.431 2.7155
740 1 230.8175 8.1465 0.0
741 1 229.45975 6.78875 1.35775
742 1 232.17525 9.50425 1.35775
743 1 229.45975 9.50425 4.07325
744 1 232.17525 6.78875 4.07325
745 1 233.53300000000002 5.431 0.0
746 1 233.53300000000002 8.1465 2.7155
747 1 236.2485 5.431 2.7155
748 1 236.2485 8.1465 0.0
749 1 234.89075 6.78875 1.35775
750 1 237.60625 9.50425 1.35775
751 1 234.89075 9.50425 4.07325
752 1 237.60625 6.78875 4.07325
753 1 238.964 5.431 0.0
754 1 238.964 8.1465 2.7155
755 1 241.6795 5.431 2.7155
756 1 241.6795 8.1465 0.0
757 1 240.32175 6.78875 1.35775
758 1 243.03725 9.50425 1.35775
759 1 240.32175 9.50425 4.07325
760 1 243.03725 6.78875 4.07325
761 1 244.395 5.431 0.0
762 1 244.395 8.1465 2.7155
763 1 247.1105 5.431 2.7155
764 1 247.1105 8.1465 0.0
765 1 245.75275 6.78875 1.35775
766 1 248.46825 9.50425 1.35775
767 1 245.75275 9.50425 4.07325
768 1 248.46825 6.78875 4.07325
769 1 249.826 5.431 0.0
770 1 249.826 8.1465 2.7155
771 1 252.5415 5.431 2.7155
772 1 252.5415 8.1465 0.0
773 1 251.18375 6.78875 1.35775
774 1 253.89925 9.50425 1.35775
775 1 251.18375 9.50425 4.07325
776 1 253.89925 6.78875 4.07325
777 1 255.257 5.431 0.0
778 1 255.257 8.1465 2.7155
779 1 257.9725 5.431 2.7155
780 1 257.9725 8.1465 0.0
781 1 256.61475 6.78875 1.35775
782 1 259.33025 9.50425 1.35775
783 1 256.61475 9.50425 4.07325
784 1 259.33025 6.78875 4.07325
785 1 260.688 5.431 0.0
786 1 260.688 8.1465 2.7155
787 1 263.4035 5.431 2.7155
788 1 263.4035 8.1465 0.0
789 1 262.04575 6.78875 1.35775
790 1 264.76125 9.50425 1.35775
791 1 262.04575 9.50425 4.07325
792 1 264.76125 6.78875 4.07325
793 1 266.119 5.431 0.0
794 1 266.119 8.1465 2.7155
795 1 268.8345 5.431 2.7155
796 1 268.8345 8.1465 0.0
797 1 267.47675 6.78875 1.35775
798 1 270.19225 9.50425 1.35775
799 1 267.47675 9.50425 4.07325
800 1 270.19225 6.78875 4.07325
801 1 0.0 10.862 0.0
802 1 0.0 13.5775 2.7155
803 1 2.7155 10.862 2.7155
804 1 2.7155 13.5775 0.0
805 1 1.35775 12.21975 1.35775
806 1 4.07325 14.93525 1.35775
807 1 1.35775 14.93525 4.07325
808 1 4.07325 12.21975 4.07325
809 1 5.431 10.862 0.0
810 1 5.431 13.5775 2.7155
811 1 8.1465 10.862 2.7155
812 1 8.1465 13.5775 0.0
813 1 6.78875 12.21975 1.35775
814 1 9.50425 14.93525 1.35775
815 1 6.78875 14.93525 4.07325
816 1 9.50425 12.21975 4.07325
817 1 10.862 10.862 0.0
818 1 10.862 13.5775 2.7155
819 1 13.5775 10.862 2.7155
820 1 13.5775 13.5775 0.0
821 1 12.21975 12.21975 1.35775
822 1 14.93525 14.93525 1.35775
823 1 12.21975 14.93525 4.07325
824 1 14.93525 12.21975 4.07325
825 1 16.293 10.862 0.0
826 1 16.293 13.5775 2.7155
827 1 19.0085 10.862 2.7155
828 1 19.0085 13.5775 0.0
829 1 17.65075 12.21975 1.35775
830 1 20.36625 14.93525 1.35775
831 1 17.65075 14.93525 4.07325
832 1 20.36625 12.21975 4.07325
833 1 21.724 10.862 0.0
834 1 21.724 13.5775 2.7155
835 1 24.4395 10.862 2.7155
836 1 24.4395 13.5775 0.0
837 1 23.08175 12.21975 1.35775
838 1 25.797250000000002 14.93525 1.35775
839 1 23.08175 14.93525 4.07325
840 1 25.797250000000002 12.21975 4.07325
841 1 27.155 10.862 0.0
842 1 27.155 13.5775 2.7155
843 1 29.8705 10.862 2.7155
844 1 29.8705 13.5775 0.0
845 1 28.51275 12.21975 1.35775
846 1 31.22825 14.93525 1.35775
847 1 28.51275 14.93525 4.07325
848 1 31.22825 12.21975 4.07325
849 1 32.586 10.862 0.0
850 1 32.586 13.5775 2.7155
851 1 35.3015 10.862 2.7155
852 1 35.3015 13.5775 0.0
853 1 33.94375 12.21975 1.35775
854 1 36.65925 14.93525 1.35775
855 1 33.94375 14.93525 4.07325
856 1 36.65925 12.21975 4.07325
857 1 38.017 10.862 0.0
858 1 38.017 13.5775 2.7155
859 1 40.7325 10.862 2.7155
860 1 40.7325 13.5775 0.0
861 1 39.37475 12.21975 1.35775
862 1 42.09025 14.93525 1.35775
863 1 39.37475 14.93525 4.07325
864 1 42.09025 12.21975 4.07325
865 1 43.448 10.862 0.0
866 1 43.448 13.5775 2.7155
867 1 46.1635 10.862 2.7155
868 1 46.1635 13.5775 0.0
869 1 44.80575 12.21975 1.35775
870 1 47.52125 14.93525 1.35775
871 1 44.80575 14.93525 4.07325
872 1 47.52125 12.21975 4.07325
873 1 48.879 10.862 0.0
874 1 48.879 13.5775 2.7155
875 1 51.594500000000004 10.862 2.7155
876 1 51.594500000000004 13.5775 0.0
877 1 50.23675 12.21975 1.35775
878 1 52.95225 14.93525 1.35775
879 1 50.23675 14.93525 4.07325
880 1 52.95225 12.21975 4.07325
881 1 54.31 10.862 0.0
882 1 54.31 13.5775 2.7155
883 1 57.0255 10.862 2.7155
884 1 57.0255 13.5775 0.0
885 1 55.66775 12.21975 1.35775
886 1 58.383250000000004 14.93525 1.35775
887 1 55.66775 14.93525 4.07325
888 1 58.383250000000004 12.21975 4.07325
889 1 59.741 10.862 0.0
890 1 59.741 13.5775 2.7155
891 1 62.4565 10.862 2.7155
892 1 62.4565 13.5775 0.0
893 1 61.09875 12.21975 1.35775
894 1 63.81425 14.93525 1.35775
895 1 61.09875 14.93525 4.07325
896 1 63.81425 12.21975 4.07325
897 1 65.172 10.862 0.0
898 1 65.172 13.5775 2.7155
899 1 67.8875 10.862 2.7155
900 1 67.8875 13.5775 0.0
901 1 66.52975 12.21975 1.35775
902 1 69.24525 14.93525 1.35775
903 1 66.52975 14.93525 4.07325
904 1 69.24525 12.21975 4.07325
905 1 70.603 10.862 0.0
906 1 70.603 13.5775 2.7155
907 1 73.3185 10.862 2.7155
908 1 73.3185 13.5775 0.0
909 1 71.96075 12.21975 1.35775
910 1 74.67625 14.93525 1.35775
911 1 71.96075 14.93525 4.07325
912 1 74.67625 12.21975 4.07325
913 1 76.034 10.862 0.0
914 1 76.034 13.5775 2.7155
915 1 78.7495 10.862 2.7155
916 1 78.7495 13.5775 0.0
917 1 77.39175 12.21975 1.35775
918 1 80.10725000000001 14.93525 1.35775
919 1 77.39175 14.93525 4.07325
920 1 80.10725000000001 12.21975 4.07325
921 1 81.465 10.862 0.0
922 1 81.465 13.5775 2.7155
923 1 84.1805 10.862 2.7155
924 1 84.1805 13.5775 0.0
925 1 82.82275 12.21975 1.35775
926 1 85.53825 14.93525 1.35775
927 1 82.82275 14.93525 4.07325
928 1 85.53825 12.21975 4.07325
929 1 86.896 10.862 0.0
930 1 86.896 13.5775 2.7155
931 1 89.6115 10.862 2.7155
932 1 89.6115 13.5775 0.0
933 1 88.25375 12.21975 1.35775
934 1 90.96925 14.93525 1.35775
935 1 88.25375 14.93525 4.07325
936 1 90.96925 12.21975 4.07325
937 1 92.327 10.862 0.0
938 1 92.327 13.5775 2.7155
939 1 95.0425 10.862 2.7155
940 1 95.0425 13.5775 0.0
941 1 93.68475 12.21975 1.35775
942 1 96.40025 14.93525 1.35775
943 1 93.68475 14.93525 4.07325
944 1 96.40025 12.21975 4.07325
945 1 97.758 10.862 0.0
946 1 97.758 13.5775 2.7155
947 1 100.4735 10.862 2.7155
948 1 100.4735 13.5775 0.0
949 1 99.11575 12.21975 1.35775
950 1 101.83125 14.93525 1.35775
951 1 99.11575 14.93525 4.07325
952 1 101.83125 12.21975 4.07325
953 1 103.18900000000001 10.862 0.0
954 1 103.18900000000001 13.5775 2.7155
955 1 105.9045 10.862 2.7155
956 1 105.9045 13.5775 0.0
957 1 104.54675 12.21975 1.35775
958 1 107.26225 14.93525 1.35775
959 1 104.54675 14.93525 4.07325
960 1 107.26225 12.21975 4.07325
961 1 108.62 10.862 0.0
962 1 108.62 13.5775 2.7155
963 1 111.3355 10.862 2.7155
964 1 111.3355 13.5775 0.0
965 1 109.97775 12.21975 1.35775
966 1 112.69325 14.93525 1.35775
967 1 109.97775 14.93525 4.07325
968 1 112.69325 12.21975 4.07325
969 1 114.051 10.862 0.0
970 1 114.051 13.5775 2.7155
971 1 116.76650000000001 10.862 2.7155
972 1 116.76650000000001 13.5775 0.0
973 1 115.40875 12.21975 1.35775
974 1 118.12425 14.93525 1.35775
975 1 115.40875 14.93525 4.07325
976 1 118.12425 12.21975 4.07325
977 1 119.482 10.862 0.0
978 1 119.482 13.5775 2.7155
979 1 122.1975 10.862 2.7155
980 1 122.1975 13.5775 0.0
981 1 120.83975 12.21975 1.35775
982 1 123.55525 14.93525 1.35775
983 1 120.83975 14.93525 4.07325
984 1 123.55525 12.21975 4.07325
985 1 124.913 10.862 0.0
986 1 124.913 13.5775 2.7155
987 1 127.6285 10.862 2.7155
988 1 127.6285 13.5775 0.0
989 1 126.27075 12.21975 1.35775
990 1 128.98625 14.93525 1.35775
991 1 126.27075 14.93525 4.07325
992 1 128.98625 12.21975 4.07325
993 1 130.344 10.862 0.0
994 1 130.344 13.5775 2.7155
995 1 133.0595 10.862 2.7155
996 1 133.0595 13.5775 0.0
997 1 131.70175 12.21975 1.35775
998 1 134.41725 14.93525 1.35775
999 1 131.70175 14.93525 4.07325
1000 1 134.41725 12.21975 4.07325
1001 1 135.775 10.862 0.0
1002 1 135.775 13.5775 2.7155
1003 1 138.4905 10.862 2.7155
1004 1 138.4905 13.5775 0.0
1005 1 137.13275 12.21975 1.35775
1006 1 139.84825 14.93525 1.35775
1007 1 137.13275 14.93525 4.07325
1008 1 139.84825 12.21975 4.07325
1009 1 141.206 10.862 0.0
1010 1 141.206 13.5775 2.7155
1011 1 143.9215 10.862 2.7155
1012 1 143.9215 13.5775 0.0
1013 1 142.56375 12.21975 1.35775
1014 1 145.27925 14.93525 1.35775
1015 1 142.56375 14.93525 4.07325
1016 1 145.27925 12.21975 4.07325
1017 1 146.637 10.862 0.0
1018 1 146.637 13.5775 2.7155
1019 1 149.3525 10.862 2.7155
1020 1 149.3525 13.5775 0.0